
     Program BANDS v.5.1.2 starts on  8Jul2015 at 16:56:22 

     This program is part of the open-source Quantum ESPRESSO suite
     for quantum simulation of materials; please cite
         "P. Giannozzi et al., J. Phys.:Condens. Matter 21 395502 (2009);
          URL http://www.quantum-espresso.org", 
     in publications or presentations arising from this work. More details at
     http://www.quantum-espresso.org/quote

     Parallel version (MPI & OpenMP), running on      24 processor cores
     Number of MPI processes:                24
     Threads/MPI process:                     1
     R & G space division:  proc/nbgrp/npool/nimage =      24

     Reading data from directory:
     /scratch2/scratchdirs/chunjing/tmp_espresso/MoS2.save

   Info: using nr1, nr2, nr3 values from input

   Info: using nr1s, nr2s, nr3s values from input

     IMPORTANT: XC functional enforced from input :
     Exchange-correlation      =  SLA  PW   PBX  PBC ( 1  4  3  4 0 0)
     Any further DFT definition will be discarded
     Please, verify this is what you really want

               file Mo.pbe-spn-kjpaw_psl.0.2.UPF: wavefunction(s)  4D renormalized
               file S.pbe-n-kjpaw_psl.0.1.UPF: wavefunction(s)  3P renormalized
 
     Parallelization info
     --------------------
     sticks:   dense  smooth     PW     G-vecs:    dense   smooth      PW
     Min          47      16      5                12773     2678     455
     Max          48      17      6                12808     2719     496
     Sum        1135     397    121               306881    64743   11103
 

     negative rho (up, down):  7.969E-04 0.000E+00
     high-symmetry point:  0.0000 0.0000 0.0000   x coordinate   0.0000
     high-symmetry point:  0.5000 0.2887 0.0000   x coordinate   0.5774
     high-symmetry point:  0.3300 0.5716 0.0000   x coordinate   0.9074
     high-symmetry point:  0.0000 0.0000 0.0000   x coordinate   1.5674
     high-symmetry point:  0.0000 0.0000 0.0500   x coordinate   1.6174

     Plottable bands written to file MoS2.qebands.dat.gnu
     Bands written to file MoS2.qebands.dat

 **************************************************************************

                    xk=(   0.00000,   0.00000,   0.00000  )

     point group D_3h (-62m)
     there are  6 classes
     the character table:

       E     2C3   3C2   s_h   2S3   3s_v 
A'_1   1.00  1.00  1.00  1.00  1.00  1.00
A'_2   1.00  1.00 -1.00  1.00  1.00 -1.00
E'     2.00 -1.00  0.00  2.00 -1.00  0.00
A''1   1.00  1.00  1.00 -1.00 -1.00 -1.00
A''2   1.00  1.00 -1.00 -1.00 -1.00  1.00
E''    2.00 -1.00  0.00 -2.00  1.00  0.00

     the symmetry operations in each class and the name of the first element:

     E        1
                                                                 
     2C3      3    4
                                                                 
     3C2      2    6    5
                                                                 
     s_h      7
                                                                 
     2S3      9   10
                                                                 
     3s_v     8   11   12
                                                                 

     Band symmetry, D_3h (-62m) point group:

     e(  1 -  1) =    -63.74008  eV     1   --> A'_1           
     e(  2 -  2) =    -37.86409  eV     1   --> A''2           
     e(  3 -  4) =    -37.66094  eV     2   --> E'             
     e(  5 -  5) =    -16.87513  eV     1   --> A'_1           
     e(  6 -  6) =    -15.58676  eV     1   --> A''2           
     e(  7 -  7) =     -8.40736  eV     1   --> A'_1           
     e(  8 -  9) =     -5.42755  eV     2   --> E'             
     e( 10 - 10) =     -4.56669  eV     1   --> A''2           
     e( 11 - 12) =     -4.32408  eV     2   --> E''            
     e( 13 - 13) =     -2.82317  eV     1   --> A'_1           
     e( 14 - 15) =     -0.07458  eV     2   --> E''            
     e( 16 - 17) =      0.15260  eV     2   --> E'             

 **************************************************************************

 **************************************************************************

                    xk=(   0.01250,   0.00722,   0.00000  )

     point group C_2v (mm2) 
     there are  4 classes
     the character table:

       E     C2    s_v   s_v' 
A_1    1.00  1.00  1.00  1.00
A_2    1.00  1.00 -1.00 -1.00
B_1    1.00 -1.00  1.00 -1.00
B_2    1.00 -1.00 -1.00  1.00

     the symmetry operations in each class and the name of the first element:

     E        1
                                                                 
     C2       2
                                                                 
     s_v      3
                                                                 
     s_v'     4
                                                                 

     Band symmetry, C_2v (mm2)  point group:

     e(  1 -  1) =    -63.74003  eV     1   --> A_1  D_1  S_1  
     e(  2 -  2) =    -37.86401  eV     1   --> B_2  D_4  S_4  
     e(  3 -  3) =    -37.66156  eV     1   --> A_1  D_1  S_1  
     e(  4 -  4) =    -37.66111  eV     1   --> B_1  D_3  S_3  
     e(  5 -  5) =    -16.87284  eV     1   --> A_1  D_1  S_1  
     e(  6 -  6) =    -15.58581  eV     1   --> B_2  D_4  S_4  
     e(  7 -  7) =     -8.40467  eV     1   --> A_1  D_1  S_1  
     e(  8 -  8) =     -5.43300  eV     1   --> A_1  D_1  S_1  
     e(  9 -  9) =     -5.42513  eV     1   --> B_1  D_3  S_3  
     e( 10 - 10) =     -4.59374  eV     1   --> B_2  D_4  S_4  
     e( 11 - 11) =     -4.32798  eV     1   --> A_2  D_2  S_2  
     e( 12 - 12) =     -4.30034  eV     1   --> B_2  D_4  S_4  
     e( 13 - 13) =     -2.82420  eV     1   --> A_1  D_1  S_1  
     e( 14 - 14) =     -0.07866  eV     1   --> B_2  D_4  S_4  
     e( 15 - 15) =     -0.07036  eV     1   --> A_2  D_2  S_2  
     e( 16 - 16) =      0.14531  eV     1   --> A_1  D_1  S_1  
     e( 17 - 17) =      0.14989  eV     1   --> B_1  D_3  S_3  

 **************************************************************************

 **************************************************************************

                    xk=(   0.02500,   0.01443,   0.00000  )

     Band symmetry, C_2v (mm2)  point group:

     e(  1 -  1) =    -63.73986  eV     1   --> A_1  D_1  S_1  
     e(  2 -  2) =    -37.86368  eV     1   --> B_2  D_4  S_4  
     e(  3 -  3) =    -37.66323  eV     1   --> A_1  D_1  S_1  
     e(  4 -  4) =    -37.66150  eV     1   --> B_1  D_3  S_3  
     e(  5 -  5) =    -16.86596  eV     1   --> A_1  D_1  S_1  
     e(  6 -  6) =    -15.58294  eV     1   --> B_2  D_4  S_4  
     e(  7 -  7) =     -8.39661  eV     1   --> A_1  D_1  S_1  
     e(  8 -  8) =     -5.44920  eV     1   --> A_1  D_1  S_1  
     e(  9 -  9) =     -5.41784  eV     1   --> B_1  D_3  S_3  
     e( 10 - 10) =     -4.65635  eV     1   --> B_2  D_4  S_4  
     e( 11 - 11) =     -4.33957  eV     1   --> A_2  D_2  S_2  
     e( 12 - 12) =     -4.24770  eV     1   --> B_2  D_4  S_4  
     e( 13 - 13) =     -2.82735  eV     1   --> A_1  D_1  S_1  
     e( 14 - 14) =     -0.09056  eV     1   --> B_2  D_4  S_4  
     e( 15 - 15) =     -0.05781  eV     1   --> A_2  D_2  S_2  
     e( 16 - 16) =      0.12390  eV     1   --> A_1  D_1  S_1  
     e( 17 - 17) =      0.14188  eV     1   --> B_1  D_3  S_3  

 **************************************************************************

 **************************************************************************

                    xk=(   0.03750,   0.02165,   0.00000  )

     Band symmetry, C_2v (mm2)  point group:

     e(  1 -  1) =    -63.73960  eV     1   --> A_1  D_1  S_1  
     e(  2 -  2) =    -37.86314  eV     1   --> B_2  D_4  S_4  
     e(  3 -  3) =    -37.66611  eV     1   --> A_1  D_1  S_1  
     e(  4 -  4) =    -37.66216  eV     1   --> B_1  D_3  S_3  
     e(  5 -  5) =    -16.85453  eV     1   --> A_1  D_1  S_1  
     e(  6 -  6) =    -15.57818  eV     1   --> B_2  D_4  S_4  
     e(  7 -  7) =     -8.38326  eV     1   --> A_1  D_1  S_1  
     e(  8 -  8) =     -5.47590  eV     1   --> A_1  D_1  S_1  
     e(  9 -  9) =     -5.40575  eV     1   --> B_1  D_3  S_3  
     e( 10 - 10) =     -4.73400  eV     1   --> B_2  D_4  S_4  
     e( 11 - 11) =     -4.35865  eV     1   --> A_2  D_2  S_2  
     e( 12 - 12) =     -4.18691  eV     1   --> B_2  D_4  S_4  
     e( 13 - 13) =     -2.83278  eV     1   --> A_1  D_1  S_1  
     e( 14 - 14) =     -0.10940  eV     1   --> B_2  D_4  S_4  
     e( 15 - 15) =     -0.03718  eV     1   --> A_2  D_2  S_2  
     e( 16 - 16) =      0.08941  eV     1   --> A_1  D_1  S_1  
     e( 17 - 17) =      0.12868  eV     1   --> B_1  D_3  S_3  

 **************************************************************************

 **************************************************************************

                    xk=(   0.05000,   0.02887,   0.00000  )

     Band symmetry, C_2v (mm2)  point group:

     e(  1 -  1) =    -63.73922  eV     1   --> A_1  D_1  S_1  
     e(  2 -  2) =    -37.86237  eV     1   --> B_2  D_4  S_4  
     e(  3 -  3) =    -37.67009  eV     1   --> A_1  D_1  S_1  
     e(  4 -  4) =    -37.66308  eV     1   --> B_1  D_3  S_3  
     e(  5 -  5) =    -16.83857  eV     1   --> A_1  D_1  S_1  
     e(  6 -  6) =    -15.57153  eV     1   --> B_2  D_4  S_4  
     e(  7 -  7) =     -8.36473  eV     1   --> A_1  D_1  S_1  
     e(  8 -  8) =     -5.51257  eV     1   --> A_1  D_1  S_1  
     e(  9 -  9) =     -5.38893  eV     1   --> B_1  D_3  S_3  
     e( 10 - 10) =     -4.81866  eV     1   --> B_2  D_4  S_4  
     e( 11 - 11) =     -4.38483  eV     1   --> A_2  D_2  S_2  
     e( 12 - 12) =     -4.12635  eV     1   --> B_2  D_4  S_4  
     e( 13 - 13) =     -2.84074  eV     1   --> A_1  D_1  S_1  
     e( 14 - 14) =     -0.13377  eV     1   --> B_2  D_4  S_4  
     e( 15 - 15) =     -0.00889  eV     1   --> A_2  D_2  S_2  
     e( 16 - 16) =      0.04358  eV     1   --> A_1  D_1  S_1  
     e( 17 - 17) =      0.11050  eV     1   --> B_1  D_3  S_3  

 **************************************************************************

 **************************************************************************

                    xk=(   0.06250,   0.03608,   0.00000  )

     Band symmetry, C_2v (mm2)  point group:

     e(  1 -  1) =    -63.73873  eV     1   --> A_1  D_1  S_1  
     e(  2 -  2) =    -37.86136  eV     1   --> B_2  D_4  S_4  
     e(  3 -  3) =    -37.67508  eV     1   --> A_1  D_1  S_1  
     e(  4 -  4) =    -37.66419  eV     1   --> B_1  D_3  S_3  
     e(  5 -  5) =    -16.81816  eV     1   --> A_1  D_1  S_1  
     e(  6 -  6) =    -15.56303  eV     1   --> B_2  D_4  S_4  
     e(  7 -  7) =     -8.34118  eV     1   --> A_1  D_1  S_1  
     e(  8 -  8) =     -5.55856  eV     1   --> A_1  D_1  S_1  
     e(  9 -  9) =     -5.36738  eV     1   --> B_1  D_3  S_3  
     e( 10 - 10) =     -4.90727  eV     1   --> B_2  D_4  S_4  
     e( 11 - 11) =     -4.41764  eV     1   --> A_2  D_2  S_2  
     e( 12 - 12) =     -4.06954  eV     1   --> B_2  D_4  S_4  
     e( 13 - 13) =     -2.85152  eV     1   --> A_1  D_1  S_1  
     e( 14 - 14) =     -0.16187  eV     1   --> B_2  D_4  S_4  
     e( 15 - 15) =     -0.01152  eV     1   --> A_1  D_1  S_1  
     e( 16 - 16) =      0.02655  eV     1   --> A_2  D_2  S_2  
     e( 17 - 17) =      0.08771  eV     1   --> B_1  D_3  S_3  

 **************************************************************************

 **************************************************************************

                    xk=(   0.07500,   0.04330,   0.00000  )

     Band symmetry, C_2v (mm2)  point group:

     e(  1 -  1) =    -63.73814  eV     1   --> A_1  D_1  S_1  
     e(  2 -  2) =    -37.86015  eV     1   --> B_2  D_4  S_4  
     e(  3 -  3) =    -37.68112  eV     1   --> A_1  D_1  S_1  
     e(  4 -  4) =    -37.66558  eV     1   --> B_1  D_3  S_3  
     e(  5 -  5) =    -16.79335  eV     1   --> A_1  D_1  S_1  
     e(  6 -  6) =    -15.55269  eV     1   --> B_2  D_4  S_4  
     e(  7 -  7) =     -8.31283  eV     1   --> A_1  D_1  S_1  
     e(  8 -  8) =     -5.61311  eV     1   --> A_1  D_1  S_1  
     e(  9 -  9) =     -5.34126  eV     1   --> B_1  D_3  S_3  
     e( 10 - 10) =     -4.99846  eV     1   --> B_2  D_4  S_4  
     e( 11 - 11) =     -4.45656  eV     1   --> A_2  D_2  S_2  
     e( 12 - 12) =     -4.01842  eV     1   --> B_2  D_4  S_4  
     e( 13 - 13) =     -2.86557  eV     1   --> A_1  D_1  S_1  
     e( 14 - 14) =     -0.19164  eV     1   --> B_2  D_4  S_4  
     e( 15 - 15) =     -0.07362  eV     1   --> A_1  D_1  S_1  
     e( 16 - 16) =      0.06066  eV     1   --> B_1  D_3  S_3  
     e( 17 - 17) =      0.06844  eV     1   --> A_2  D_2  S_2  

 **************************************************************************

 **************************************************************************

                    xk=(   0.08750,   0.05052,   0.00000  )

     Band symmetry, C_2v (mm2)  point group:

     e(  1 -  1) =    -63.73746  eV     1   --> A_1  D_1  S_1  
     e(  2 -  2) =    -37.85877  eV     1   --> B_2  D_4  S_4  
     e(  3 -  3) =    -37.68818  eV     1   --> A_1  D_1  S_1  
     e(  4 -  4) =    -37.66720  eV     1   --> B_1  D_3  S_3  
     e(  5 -  5) =    -16.76425  eV     1   --> A_1  D_1  S_1  
     e(  6 -  6) =    -15.54057  eV     1   --> B_2  D_4  S_4  
     e(  7 -  7) =     -8.27998  eV     1   --> A_1  D_1  S_1  
     e(  8 -  8) =     -5.67529  eV     1   --> A_1  D_1  S_1  
     e(  9 -  9) =     -5.31069  eV     1   --> B_1  D_3  S_3  
     e( 10 - 10) =     -5.09146  eV     1   --> B_2  D_4  S_4  
     e( 11 - 11) =     -4.50096  eV     1   --> A_2  D_2  S_2  
     e( 12 - 12) =     -3.97431  eV     1   --> B_2  D_4  S_4  
     e( 13 - 13) =     -2.88341  eV     1   --> A_1  D_1  S_1  
     e( 14 - 14) =     -0.22084  eV     1   --> B_2  D_4  S_4  
     e( 15 - 15) =     -0.14040  eV     1   --> A_1  D_1  S_1  
     e( 16 - 16) =      0.02974  eV     1   --> B_1  D_3  S_3  
     e( 17 - 17) =      0.11602  eV     1   --> A_2  D_2  S_2  

 **************************************************************************

 **************************************************************************

                    xk=(   0.10000,   0.05774,   0.00000  )

     Band symmetry, C_2v (mm2)  point group:

     e(  1 -  1) =    -63.73668  eV     1   --> A_1  D_1  S_1  
     e(  2 -  2) =    -37.85720  eV     1   --> B_2  D_4  S_4  
     e(  3 -  3) =    -37.69620  eV     1   --> A_1  D_1  S_1  
     e(  4 -  4) =    -37.66903  eV     1   --> B_1  D_3  S_3  
     e(  5 -  5) =    -16.73094  eV     1   --> A_1  D_1  S_1  
     e(  6 -  6) =    -15.52670  eV     1   --> B_2  D_4  S_4  
     e(  7 -  7) =     -8.24297  eV     1   --> A_1  D_1  S_1  
     e(  8 -  8) =     -5.74412  eV     1   --> A_1  D_1  S_1  
     e(  9 -  9) =     -5.27581  eV     1   --> B_1  D_3  S_3  
     e( 10 - 10) =     -5.18584  eV     1   --> B_2  D_4  S_4  
     e( 11 - 11) =     -4.55020  eV     1   --> A_2  D_2  S_2  
     e( 12 - 12) =     -3.93821  eV     1   --> B_2  D_4  S_4  
     e( 13 - 13) =     -2.90551  eV     1   --> A_1  D_1  S_1  
     e( 14 - 14) =     -0.24731  eV     1   --> B_2  D_4  S_4  
     e( 15 - 15) =     -0.20953  eV     1   --> A_1  D_1  S_1  
     e( 16 - 16) =     -0.00451  eV     1   --> B_1  D_3  S_3  
     e( 17 - 17) =      0.16852  eV     1   --> A_2  D_2  S_2  

 **************************************************************************

 **************************************************************************

                    xk=(   0.11250,   0.06495,   0.00000  )

     Band symmetry, C_2v (mm2)  point group:

     e(  1 -  1) =    -63.73582  eV     1   --> A_1  D_1  S_1  
     e(  2 -  2) =    -37.85545  eV     1   --> B_2  D_4  S_4  
     e(  3 -  3) =    -37.70510  eV     1   --> A_1  D_1  S_1  
     e(  4 -  4) =    -37.67107  eV     1   --> B_1  D_3  S_3  
     e(  5 -  5) =    -16.69356  eV     1   --> A_1  D_1  S_1  
     e(  6 -  6) =    -15.51113  eV     1   --> B_2  D_4  S_4  
     e(  7 -  7) =     -8.20226  eV     1   --> A_1  D_1  S_1  
     e(  8 -  8) =     -5.81850  eV     1   --> A_1  D_1  S_1  
     e(  9 -  9) =     -5.28125  eV     1   --> B_2  D_4  S_4  
     e( 10 - 10) =     -5.23679  eV     1   --> B_1  D_3  S_3  
     e( 11 - 11) =     -4.60359  eV     1   --> A_2  D_2  S_2  
     e( 12 - 12) =     -3.91092  eV     1   --> B_2  D_4  S_4  
     e( 13 - 13) =     -2.93242  eV     1   --> A_1  D_1  S_1  
     e( 14 - 14) =     -0.27882  eV     1   --> A_1  D_1  S_1  
     e( 15 - 15) =     -0.26895  eV     1   --> B_2  D_4  S_4  
     e( 16 - 16) =     -0.04160  eV     1   --> B_1  D_3  S_3  
     e( 17 - 17) =      0.22515  eV     1   --> A_2  D_2  S_2  

 **************************************************************************

 **************************************************************************

                    xk=(   0.12500,   0.07217,   0.00000  )

     Band symmetry, C_2v (mm2)  point group:

     e(  1 -  1) =    -63.73487  eV     1   --> A_1  D_1  S_1  
     e(  2 -  2) =    -37.85353  eV     1   --> B_2  D_4  S_4  
     e(  3 -  3) =    -37.71487  eV     1   --> A_1  D_1  S_1  
     e(  4 -  4) =    -37.67330  eV     1   --> B_1  D_3  S_3  
     e(  5 -  5) =    -16.65223  eV     1   --> A_1  D_1  S_1  
     e(  6 -  6) =    -15.49393  eV     1   --> B_2  D_4  S_4  
     e(  7 -  7) =     -8.15837  eV     1   --> A_1  D_1  S_1  
     e(  8 -  8) =     -5.89734  eV     1   --> A_1  D_1  S_1  
     e(  9 -  9) =     -5.37751  eV     1   --> B_2  D_4  S_4  
     e( 10 - 10) =     -5.19383  eV     1   --> B_1  D_3  S_3  
     e( 11 - 11) =     -4.66044  eV     1   --> A_2  D_2  S_2  
     e( 12 - 12) =     -3.89293  eV     1   --> B_2  D_4  S_4  
     e( 13 - 13) =     -2.96459  eV     1   --> A_1  D_1  S_1  
     e( 14 - 14) =     -0.34622  eV     1   --> A_1  D_1  S_1  
     e( 15 - 15) =     -0.28404  eV     1   --> B_2  D_4  S_4  
     e( 16 - 16) =     -0.08099  eV     1   --> B_1  D_3  S_3  
     e( 17 - 17) =      0.28509  eV     1   --> A_2  D_2  S_2  

 **************************************************************************

 **************************************************************************

                    xk=(   0.13750,   0.07939,   0.00000  )

     Band symmetry, C_2v (mm2)  point group:

     e(  1 -  1) =    -63.73384  eV     1   --> A_1  D_1  S_1  
     e(  2 -  2) =    -37.85146  eV     1   --> B_2  D_4  S_4  
     e(  3 -  3) =    -37.72539  eV     1   --> A_1  D_1  S_1  
     e(  4 -  4) =    -37.67572  eV     1   --> B_1  D_3  S_3  
     e(  5 -  5) =    -16.60712  eV     1   --> A_1  D_1  S_1  
     e(  6 -  6) =    -15.47516  eV     1   --> B_2  D_4  S_4  
     e(  7 -  7) =     -8.11195  eV     1   --> A_1  D_1  S_1  
     e(  8 -  8) =     -5.97945  eV     1   --> A_1  D_1  S_1  
     e(  9 -  9) =     -5.47445  eV     1   --> B_2  D_4  S_4  
     e( 10 - 10) =     -5.14715  eV     1   --> B_1  D_3  S_3  
     e( 11 - 11) =     -4.72013  eV     1   --> A_2  D_2  S_2  
     e( 12 - 12) =     -3.88449  eV     1   --> B_2  D_4  S_4  
     e( 13 - 13) =     -3.00239  eV     1   --> A_1  D_1  S_1  
     e( 14 - 14) =     -0.40992  eV     1   --> A_1  D_1  S_1  
     e( 15 - 15) =     -0.29107  eV     1   --> B_2  D_4  S_4  
     e( 16 - 16) =     -0.12213  eV     1   --> B_1  D_3  S_3  
     e( 17 - 17) =      0.34754  eV     1   --> A_2  D_2  S_2  

 **************************************************************************

 **************************************************************************

                    xk=(   0.15000,   0.08660,   0.00000  )

     Band symmetry, C_2v (mm2)  point group:

     e(  1 -  1) =    -63.73274  eV     1   --> A_1  D_1  S_1  
     e(  2 -  2) =    -37.84923  eV     1   --> B_2  D_4  S_4  
     e(  3 -  3) =    -37.73662  eV     1   --> A_1  D_1  S_1  
     e(  4 -  4) =    -37.67828  eV     1   --> B_1  D_3  S_3  
     e(  5 -  5) =    -16.55839  eV     1   --> A_1  D_1  S_1  
     e(  6 -  6) =    -15.45489  eV     1   --> B_2  D_4  S_4  
     e(  7 -  7) =     -8.06382  eV     1   --> A_1  D_1  S_1  
     e(  8 -  8) =     -6.06357  eV     1   --> A_1  D_1  S_1  
     e(  9 -  9) =     -5.57195  eV     1   --> B_2  D_4  S_4  
     e( 10 - 10) =     -5.09699  eV     1   --> B_1  D_3  S_3  
     e( 11 - 11) =     -4.78204  eV     1   --> A_2  D_2  S_2  
     e( 12 - 12) =     -3.88553  eV     1   --> B_2  D_4  S_4  
     e( 13 - 13) =     -3.04601  eV     1   --> A_1  D_1  S_1  
     e( 14 - 14) =     -0.46832  eV     1   --> A_1  D_1  S_1  
     e( 15 - 15) =     -0.28903  eV     1   --> B_2  D_4  S_4  
     e( 16 - 16) =     -0.16444  eV     1   --> B_1  D_3  S_3  
     e( 17 - 17) =      0.41171  eV     1   --> A_2  D_2  S_2  

 **************************************************************************

 **************************************************************************

                    xk=(   0.16250,   0.09382,   0.00000  )

     Band symmetry, C_2v (mm2)  point group:

     e(  1 -  1) =    -63.73157  eV     1   --> A_1  D_1  S_1  
     e(  2 -  2) =    -37.84689  eV     1   --> B_2  D_4  S_4  
     e(  3 -  3) =    -37.74850  eV     1   --> A_1  D_1  S_1  
     e(  4 -  4) =    -37.68101  eV     1   --> B_1  D_3  S_3  
     e(  5 -  5) =    -16.50623  eV     1   --> A_1  D_1  S_1  
     e(  6 -  6) =    -15.43321  eV     1   --> B_2  D_4  S_4  
     e(  7 -  7) =     -8.01494  eV     1   --> A_1  D_1  S_1  
     e(  8 -  8) =     -6.14841  eV     1   --> A_1  D_1  S_1  
     e(  9 -  9) =     -5.66990  eV     1   --> B_2  D_4  S_4  
     e( 10 - 10) =     -5.04367  eV     1   --> B_1  D_3  S_3  
     e( 11 - 11) =     -4.84560  eV     1   --> A_2  D_2  S_2  
     e( 12 - 12) =     -3.89569  eV     1   --> B_2  D_4  S_4  
     e( 13 - 13) =     -3.09540  eV     1   --> A_1  D_1  S_1  
     e( 14 - 14) =     -0.52015  eV     1   --> A_1  D_1  S_1  
     e( 15 - 15) =     -0.27734  eV     1   --> B_2  D_4  S_4  
     e( 16 - 16) =     -0.20746  eV     1   --> B_1  D_3  S_3  
     e( 17 - 17) =      0.47688  eV     1   --> A_2  D_2  S_2  

 **************************************************************************

 **************************************************************************

                    xk=(   0.17500,   0.10104,   0.00000  )

     Band symmetry, C_2v (mm2)  point group:

     e(  1 -  1) =    -63.73035  eV     1   --> A_1  D_1  S_1  
     e(  2 -  2) =    -37.84442  eV     1   --> B_2  D_4  S_4  
     e(  3 -  3) =    -37.76093  eV     1   --> A_1  D_1  S_1  
     e(  4 -  4) =    -37.68387  eV     1   --> B_1  D_3  S_3  
     e(  5 -  5) =    -16.45085  eV     1   --> A_1  D_1  S_1  
     e(  6 -  6) =    -15.41021  eV     1   --> B_2  D_4  S_4  
     e(  7 -  7) =     -7.96650  eV     1   --> A_1  D_1  S_1  
     e(  8 -  8) =     -6.23259  eV     1   --> A_1  D_1  S_1  
     e(  9 -  9) =     -5.76819  eV     1   --> B_2  D_4  S_4  
     e( 10 - 10) =     -4.98744  eV     1   --> B_1  D_3  S_3  
     e( 11 - 11) =     -4.91026  eV     1   --> A_2  D_2  S_2  
     e( 12 - 12) =     -3.91430  eV     1   --> B_2  D_4  S_4  
     e( 13 - 13) =     -3.15025  eV     1   --> A_1  D_1  S_1  
     e( 14 - 14) =     -0.56445  eV     1   --> A_1  D_1  S_1  
     e( 15 - 15) =     -0.25582  eV     1   --> B_2  D_4  S_4  
     e( 16 - 16) =     -0.25060  eV     1   --> B_1  D_3  S_3  
     e( 17 - 17) =      0.54236  eV     1   --> A_2  D_2  S_2  

 **************************************************************************

 **************************************************************************

                    xk=(   0.18750,   0.10825,   0.00000  )

     Band symmetry, C_2v (mm2)  point group:

     e(  1 -  1) =    -63.72907  eV     1   --> A_1  D_1  S_1  
     e(  2 -  2) =    -37.84184  eV     1   --> B_2  D_4  S_4  
     e(  3 -  3) =    -37.77384  eV     1   --> A_1  D_1  S_1  
     e(  4 -  4) =    -37.68688  eV     1   --> B_1  D_3  S_3  
     e(  5 -  5) =    -16.39247  eV     1   --> A_1  D_1  S_1  
     e(  6 -  6) =    -15.38598  eV     1   --> B_2  D_4  S_4  
     e(  7 -  7) =     -7.91993  eV     1   --> A_1  D_1  S_1  
     e(  8 -  8) =     -6.31458  eV     1   --> A_1  D_1  S_1  
     e(  9 -  9) =     -5.86671  eV     1   --> B_2  D_4  S_4  
     e( 10 - 10) =     -4.97551  eV     1   --> A_2  D_2  S_2  
     e( 11 - 11) =     -4.92867  eV     1   --> B_1  D_3  S_3  
     e( 12 - 12) =     -3.94045  eV     1   --> B_2  D_4  S_4  
     e( 13 - 13) =     -3.20992  eV     1   --> A_1  D_1  S_1  
     e( 14 - 14) =     -0.60063  eV     1   --> A_1  D_1  S_1  
     e( 15 - 15) =     -0.29338  eV     1   --> B_1  D_3  S_3  
     e( 16 - 16) =     -0.22469  eV     1   --> B_2  D_4  S_4  
     e( 17 - 17) =      0.60756  eV     1   --> A_2  D_2  S_2  

 **************************************************************************

 **************************************************************************

                    xk=(   0.20000,   0.11547,   0.00000  )

     Band symmetry, C_2v (mm2)  point group:

     e(  1 -  1) =    -63.72775  eV     1   --> A_1  D_1  S_1  
     e(  2 -  2) =    -37.83916  eV     1   --> B_2  D_4  S_4  
     e(  3 -  3) =    -37.78712  eV     1   --> A_1  D_1  S_1  
     e(  4 -  4) =    -37.68996  eV     1   --> B_1  D_3  S_3  
     e(  5 -  5) =    -16.33133  eV     1   --> A_1  D_1  S_1  
     e(  6 -  6) =    -15.36065  eV     1   --> B_2  D_4  S_4  
     e(  7 -  7) =     -7.87694  eV     1   --> A_1  D_1  S_1  
     e(  8 -  8) =     -6.39272  eV     1   --> A_1  D_1  S_1  
     e(  9 -  9) =     -5.96535  eV     1   --> B_2  D_4  S_4  
     e( 10 - 10) =     -5.04088  eV     1   --> A_2  D_2  S_2  
     e( 11 - 11) =     -4.86769  eV     1   --> B_1  D_3  S_3  
     e( 12 - 12) =     -3.97305  eV     1   --> B_2  D_4  S_4  
     e( 13 - 13) =     -3.27345  eV     1   --> A_1  D_1  S_1  
     e( 14 - 14) =     -0.62837  eV     1   --> A_1  D_1  S_1  
     e( 15 - 15) =     -0.33527  eV     1   --> B_1  D_3  S_3  
     e( 16 - 16) =     -0.18447  eV     1   --> B_2  D_4  S_4  
     e( 17 - 17) =      0.67192  eV     1   --> A_2  D_2  S_2  

 **************************************************************************

 **************************************************************************

                    xk=(   0.21250,   0.12269,   0.00000  )

     Band symmetry, C_2v (mm2)  point group:

     e(  1 -  1) =    -63.72640  eV     1   --> A_1  D_1  S_1  
     e(  2 -  2) =    -37.83646  eV     1   --> B_2  D_4  S_4  
     e(  3 -  3) =    -37.80076  eV     1   --> A_1  D_1  S_1  
     e(  4 -  4) =    -37.69310  eV     1   --> B_1  D_3  S_3  
     e(  5 -  5) =    -16.26770  eV     1   --> A_1  D_1  S_1  
     e(  6 -  6) =    -15.33432  eV     1   --> B_2  D_4  S_4  
     e(  7 -  7) =     -7.83952  eV     1   --> A_1  D_1  S_1  
     e(  8 -  8) =     -6.46525  eV     1   --> A_1  D_1  S_1  
     e(  9 -  9) =     -6.06398  eV     1   --> B_2  D_4  S_4  
     e( 10 - 10) =     -5.10598  eV     1   --> A_2  D_2  S_2  
     e( 11 - 11) =     -4.80489  eV     1   --> B_1  D_3  S_3  
     e( 12 - 12) =     -4.01094  eV     1   --> B_2  D_4  S_4  
     e( 13 - 13) =     -3.33958  eV     1   --> A_1  D_1  S_1  
     e( 14 - 14) =     -0.64770  eV     1   --> A_1  D_1  S_1  
     e( 15 - 15) =     -0.37587  eV     1   --> B_1  D_3  S_3  
     e( 16 - 16) =     -0.13605  eV     1   --> B_2  D_4  S_4  
     e( 17 - 17) =      0.73490  eV     1   --> A_2  D_2  S_2  

 **************************************************************************

 **************************************************************************

                    xk=(   0.22500,   0.12990,   0.00000  )

     Band symmetry, C_2v (mm2)  point group:

     e(  1 -  1) =    -63.72502  eV     1   --> A_1  D_1  S_1  
     e(  2 -  2) =    -37.83366  eV     1   --> B_2  D_4  S_4  
     e(  3 -  3) =    -37.81456  eV     1   --> A_1  D_1  S_1  
     e(  4 -  4) =    -37.69632  eV     1   --> B_1  D_3  S_3  
     e(  5 -  5) =    -16.20186  eV     1   --> A_1  D_1  S_1  
     e(  6 -  6) =    -15.30713  eV     1   --> B_2  D_4  S_4  
     e(  7 -  7) =     -7.80987  eV     1   --> A_1  D_1  S_1  
     e(  8 -  8) =     -6.53028  eV     1   --> A_1  D_1  S_1  
     e(  9 -  9) =     -6.16237  eV     1   --> B_2  D_4  S_4  
     e( 10 - 10) =     -5.17041  eV     1   --> A_2  D_2  S_2  
     e( 11 - 11) =     -4.74067  eV     1   --> B_1  D_3  S_3  
     e( 12 - 12) =     -4.05287  eV     1   --> B_2  D_4  S_4  
     e( 13 - 13) =     -3.40680  eV     1   --> A_1  D_1  S_1  
     e( 14 - 14) =     -0.65887  eV     1   --> A_1  D_1  S_1  
     e( 15 - 15) =     -0.41474  eV     1   --> B_1  D_3  S_3  
     e( 16 - 16) =     -0.08028  eV     1   --> B_2  D_4  S_4  
     e( 17 - 17) =      0.79610  eV     1   --> A_2  D_2  S_2  

 **************************************************************************

 **************************************************************************

                    xk=(   0.23750,   0.13712,   0.00000  )

     Band symmetry, C_2v (mm2)  point group:

     e(  1 -  1) =    -63.72362  eV     1   --> A_1  D_1  S_1  
     e(  2 -  2) =    -37.83082  eV     1   --> B_2  D_4  S_4  
     e(  3 -  3) =    -37.82855  eV     1   --> A_1  D_1  S_1  
     e(  4 -  4) =    -37.69956  eV     1   --> B_1  D_3  S_3  
     e(  5 -  5) =    -16.13412  eV     1   --> A_1  D_1  S_1  
     e(  6 -  6) =    -15.27920  eV     1   --> B_2  D_4  S_4  
     e(  7 -  7) =     -7.79022  eV     1   --> A_1  D_1  S_1  
     e(  8 -  8) =     -6.58609  eV     1   --> A_1  D_1  S_1  
     e(  9 -  9) =     -6.26036  eV     1   --> B_2  D_4  S_4  
     e( 10 - 10) =     -5.23382  eV     1   --> A_2  D_2  S_2  
     e( 11 - 11) =     -4.67550  eV     1   --> B_1  D_3  S_3  
     e( 12 - 12) =     -4.09768  eV     1   --> B_2  D_4  S_4  
     e( 13 - 13) =     -3.47341  eV     1   --> A_1  D_1  S_1  
     e( 14 - 14) =     -0.66232  eV     1   --> A_1  D_1  S_1  
     e( 15 - 15) =     -0.45148  eV     1   --> B_1  D_3  S_3  
     e( 16 - 16) =     -0.01833  eV     1   --> B_2  D_4  S_4  
     e( 17 - 17) =      0.85514  eV     1   --> A_2  D_2  S_2  

 **************************************************************************

 **************************************************************************

                    xk=(   0.25000,   0.14434,   0.00000  )

     Band symmetry, C_2v (mm2)  point group:

     e(  1 -  1) =    -63.72222  eV     1   --> A_1  D_1  S_1  
     e(  2 -  2) =    -37.84258  eV     1   --> A_1  D_1  S_1  
     e(  3 -  3) =    -37.82798  eV     1   --> B_2  D_4  S_4  
     e(  4 -  4) =    -37.70280  eV     1   --> B_1  D_3  S_3  
     e(  5 -  5) =    -16.06479  eV     1   --> A_1  D_1  S_1  
     e(  6 -  6) =    -15.25071  eV     1   --> B_2  D_4  S_4  
     e(  7 -  7) =     -7.78250  eV     1   --> A_1  D_1  S_1  
     e(  8 -  8) =     -6.63131  eV     1   --> A_1  D_1  S_1  
     e(  9 -  9) =     -6.35769  eV     1   --> B_2  D_4  S_4  
     e( 10 - 10) =     -5.29591  eV     1   --> A_2  D_2  S_2  
     e( 11 - 11) =     -4.60977  eV     1   --> B_1  D_3  S_3  
     e( 12 - 12) =     -4.14427  eV     1   --> B_2  D_4  S_4  
     e( 13 - 13) =     -3.53762  eV     1   --> A_1  D_1  S_1  
     e( 14 - 14) =     -0.65867  eV     1   --> A_1  D_1  S_1  
     e( 15 - 15) =     -0.48572  eV     1   --> B_1  D_3  S_3  
     e( 16 - 16) =      0.04870  eV     1   --> B_2  D_4  S_4  
     e( 17 - 17) =      0.91172  eV     1   --> A_2  D_2  S_2  

 **************************************************************************

 **************************************************************************

                    xk=(   0.26250,   0.15155,   0.00000  )

     Band symmetry, C_2v (mm2)  point group:

     e(  1 -  1) =    -63.72081  eV     1   --> A_1  D_1  S_1  
     e(  2 -  2) =    -37.85656  eV     1   --> A_1  D_1  S_1  
     e(  3 -  3) =    -37.82518  eV     1   --> B_2  D_4  S_4  
     e(  4 -  4) =    -37.70607  eV     1   --> B_1  D_3  S_3  
     e(  5 -  5) =    -15.99424  eV     1   --> A_1  D_1  S_1  
     e(  6 -  6) =    -15.22179  eV     1   --> B_2  D_4  S_4  
     e(  7 -  7) =     -7.78793  eV     1   --> A_1  D_1  S_1  
     e(  8 -  8) =     -6.66543  eV     1   --> A_1  D_1  S_1  
     e(  9 -  9) =     -6.45406  eV     1   --> B_2  D_4  S_4  
     e( 10 - 10) =     -5.35640  eV     1   --> A_2  D_2  S_2  
     e( 11 - 11) =     -4.54401  eV     1   --> B_1  D_3  S_3  
     e( 12 - 12) =     -4.19165  eV     1   --> B_2  D_4  S_4  
     e( 13 - 13) =     -3.59759  eV     1   --> A_1  D_1  S_1  
     e( 14 - 14) =     -0.64854  eV     1   --> A_1  D_1  S_1  
     e( 15 - 15) =     -0.51718  eV     1   --> B_1  D_3  S_3  
     e( 16 - 16) =      0.11961  eV     1   --> B_2  D_4  S_4  
     e( 17 - 17) =      0.96553  eV     1   --> A_2  D_2  S_2  

 **************************************************************************

 **************************************************************************

                    xk=(   0.27500,   0.15877,   0.00000  )

     Band symmetry, C_2v (mm2)  point group:

     e(  1 -  1) =    -63.71941  eV     1   --> A_1  D_1  S_1  
     e(  2 -  2) =    -37.87044  eV     1   --> A_1  D_1  S_1  
     e(  3 -  3) =    -37.82233  eV     1   --> B_2  D_4  S_4  
     e(  4 -  4) =    -37.70929  eV     1   --> B_1  D_3  S_3  
     e(  5 -  5) =    -15.92284  eV     1   --> A_1  D_1  S_1  
     e(  6 -  6) =    -15.19261  eV     1   --> B_2  D_4  S_4  
     e(  7 -  7) =     -7.80662  eV     1   --> A_1  D_1  S_1  
     e(  8 -  8) =     -6.68903  eV     1   --> A_1  D_1  S_1  
     e(  9 -  9) =     -6.54914  eV     1   --> B_2  D_4  S_4  
     e( 10 - 10) =     -5.41500  eV     1   --> A_2  D_2  S_2  
     e( 11 - 11) =     -4.47865  eV     1   --> B_1  D_3  S_3  
     e( 12 - 12) =     -4.23892  eV     1   --> B_2  D_4  S_4  
     e( 13 - 13) =     -3.65148  eV     1   --> A_1  D_1  S_1  
     e( 14 - 14) =     -0.63267  eV     1   --> A_1  D_1  S_1  
     e( 15 - 15) =     -0.54555  eV     1   --> B_1  D_3  S_3  
     e( 16 - 16) =      0.19333  eV     1   --> B_2  D_4  S_4  
     e( 17 - 17) =      1.01650  eV     1   --> A_2  D_2  S_2  

 **************************************************************************

 **************************************************************************

                    xk=(   0.28750,   0.16599,   0.00000  )

     Band symmetry, C_2v (mm2)  point group:

     e(  1 -  1) =    -63.71803  eV     1   --> A_1  D_1  S_1  
     e(  2 -  2) =    -37.88414  eV     1   --> A_1  D_1  S_1  
     e(  3 -  3) =    -37.81954  eV     1   --> B_2  D_4  S_4  
     e(  4 -  4) =    -37.71247  eV     1   --> B_1  D_3  S_3  
     e(  5 -  5) =    -15.85098  eV     1   --> A_1  D_1  S_1  
     e(  6 -  6) =    -15.16335  eV     1   --> B_2  D_4  S_4  
     e(  7 -  7) =     -7.83756  eV     1   --> A_1  D_1  S_1  
     e(  8 -  8) =     -6.70384  eV     1   --> A_1  D_1  S_1  
     e(  9 -  9) =     -6.64260  eV     1   --> B_2  D_4  S_4  
     e( 10 - 10) =     -5.47150  eV     1   --> A_2  D_2  S_2  
     e( 11 - 11) =     -4.41416  eV     1   --> B_1  D_3  S_3  
     e( 12 - 12) =     -4.28536  eV     1   --> B_2  D_4  S_4  
     e( 13 - 13) =     -3.69765  eV     1   --> A_1  D_1  S_1  
     e( 14 - 14) =     -0.61175  eV     1   --> A_1  D_1  S_1  
     e( 15 - 15) =     -0.57067  eV     1   --> B_1  D_3  S_3  
     e( 16 - 16) =      0.26862  eV     1   --> B_2  D_4  S_4  
     e( 17 - 17) =      1.06441  eV     1   --> A_2  D_2  S_2  

 **************************************************************************

 **************************************************************************

                    xk=(   0.30000,   0.17321,   0.00000  )

     Band symmetry, C_2v (mm2)  point group:

     e(  1 -  1) =    -63.71667  eV     1   --> A_1  D_1  S_1  
     e(  2 -  2) =    -37.89755  eV     1   --> A_1  D_1  S_1  
     e(  3 -  3) =    -37.81681  eV     1   --> B_2  D_4  S_4  
     e(  4 -  4) =    -37.71560  eV     1   --> B_1  D_3  S_3  
     e(  5 -  5) =    -15.77911  eV     1   --> A_1  D_1  S_1  
     e(  6 -  6) =    -15.13419  eV     1   --> B_2  D_4  S_4  
     e(  7 -  7) =     -7.87884  eV     1   --> A_1  D_1  S_1  
     e(  8 -  8) =     -6.73399  eV     1   --> B_2  D_4  S_4  
     e(  9 -  9) =     -6.71235  eV     1   --> A_1  D_1  S_1  
     e( 10 - 10) =     -5.52570  eV     1   --> A_2  D_2  S_2  
     e( 11 - 11) =     -4.35106  eV     1   --> B_1  D_3  S_3  
     e( 12 - 12) =     -4.33040  eV     1   --> B_2  D_4  S_4  
     e( 13 - 13) =     -3.73467  eV     1   --> A_1  D_1  S_1  
     e( 14 - 14) =     -0.59237  eV     1   --> B_1  D_3  S_3  
     e( 15 - 15) =     -0.58644  eV     1   --> A_1  D_1  S_1  
     e( 16 - 16) =      0.34453  eV     1   --> B_2  D_4  S_4  
     e( 17 - 17) =      1.10918  eV     1   --> A_2  D_2  S_2  

 **************************************************************************

 **************************************************************************

                    xk=(   0.31250,   0.18042,   0.00000  )

     Band symmetry, C_2v (mm2)  point group:

     e(  1 -  1) =    -63.71535  eV     1   --> A_1  D_1  S_1  
     e(  2 -  2) =    -37.91063  eV     1   --> A_1  D_1  S_1  
     e(  3 -  3) =    -37.81413  eV     1   --> B_2  D_4  S_4  
     e(  4 -  4) =    -37.71866  eV     1   --> B_1  D_3  S_3  
     e(  5 -  5) =    -15.70765  eV     1   --> A_1  D_1  S_1  
     e(  6 -  6) =    -15.10534  eV     1   --> B_2  D_4  S_4  
     e(  7 -  7) =     -7.92814  eV     1   --> A_1  D_1  S_1  
     e(  8 -  8) =     -6.82292  eV     1   --> B_2  D_4  S_4  
     e(  9 -  9) =     -6.71729  eV     1   --> A_1  D_1  S_1  
     e( 10 - 10) =     -5.57740  eV     1   --> A_2  D_2  S_2  
     e( 11 - 11) =     -4.37353  eV     1   --> B_2  D_4  S_4  
     e( 12 - 12) =     -4.28980  eV     1   --> B_1  D_3  S_3  
     e( 13 - 13) =     -3.76146  eV     1   --> A_1  D_1  S_1  
     e( 14 - 14) =     -0.61056  eV     1   --> B_1  D_3  S_3  
     e( 15 - 15) =     -0.55746  eV     1   --> A_1  D_1  S_1  
     e( 16 - 16) =      0.41999  eV     1   --> B_2  D_4  S_4  
     e( 17 - 17) =      1.15077  eV     1   --> A_2  D_2  S_2  

 **************************************************************************

 **************************************************************************

                    xk=(   0.32500,   0.18764,   0.00000  )

     Band symmetry, C_2v (mm2)  point group:

     e(  1 -  1) =    -63.71408  eV     1   --> A_1  D_1  S_1  
     e(  2 -  2) =    -37.92331  eV     1   --> A_1  D_1  S_1  
     e(  3 -  3) =    -37.81156  eV     1   --> B_2  D_4  S_4  
     e(  4 -  4) =    -37.72161  eV     1   --> B_1  D_3  S_3  
     e(  5 -  5) =    -15.63711  eV     1   --> A_1  D_1  S_1  
     e(  6 -  6) =    -15.07698  eV     1   --> B_2  D_4  S_4  
     e(  7 -  7) =     -7.98308  eV     1   --> A_1  D_1  S_1  
     e(  8 -  8) =     -6.90895  eV     1   --> B_2  D_4  S_4  
     e(  9 -  9) =     -6.72114  eV     1   --> A_1  D_1  S_1  
     e( 10 - 10) =     -5.62645  eV     1   --> A_2  D_2  S_2  
     e( 11 - 11) =     -4.41438  eV     1   --> B_2  D_4  S_4  
     e( 12 - 12) =     -4.23083  eV     1   --> B_1  D_3  S_3  
     e( 13 - 13) =     -3.77737  eV     1   --> A_1  D_1  S_1  
     e( 14 - 14) =     -0.62520  eV     1   --> B_1  D_3  S_3  
     e( 15 - 15) =     -0.52541  eV     1   --> A_1  D_1  S_1  
     e( 16 - 16) =      0.49402  eV     1   --> B_2  D_4  S_4  
     e( 17 - 17) =      1.18915  eV     1   --> A_2  D_2  S_2  

 **************************************************************************

 **************************************************************************

                    xk=(   0.33750,   0.19486,   0.00000  )

     Band symmetry, C_2v (mm2)  point group:

     e(  1 -  1) =    -63.71284  eV     1   --> A_1  D_1  S_1  
     e(  2 -  2) =    -37.93540  eV     1   --> A_1  D_1  S_1  
     e(  3 -  3) =    -37.80905  eV     1   --> B_2  D_4  S_4  
     e(  4 -  4) =    -37.72441  eV     1   --> B_1  D_3  S_3  
     e(  5 -  5) =    -15.56796  eV     1   --> A_1  D_1  S_1  
     e(  6 -  6) =    -15.04932  eV     1   --> B_2  D_4  S_4  
     e(  7 -  7) =     -8.04151  eV     1   --> A_1  D_1  S_1  
     e(  8 -  8) =     -6.99162  eV     1   --> B_2  D_4  S_4  
     e(  9 -  9) =     -6.72581  eV     1   --> A_1  D_1  S_1  
     e( 10 - 10) =     -5.67268  eV     1   --> A_2  D_2  S_2  
     e( 11 - 11) =     -4.45267  eV     1   --> B_2  D_4  S_4  
     e( 12 - 12) =     -4.17457  eV     1   --> B_1  D_3  S_3  
     e( 13 - 13) =     -3.78220  eV     1   --> A_1  D_1  S_1  
     e( 14 - 14) =     -0.63639  eV     1   --> B_1  D_3  S_3  
     e( 15 - 15) =     -0.49085  eV     1   --> A_1  D_1  S_1  
     e( 16 - 16) =      0.56570  eV     1   --> B_2  D_4  S_4  
     e( 17 - 17) =      1.22439  eV     1   --> A_2  D_2  S_2  

 **************************************************************************

 **************************************************************************

                    xk=(   0.35000,   0.20207,   0.00000  )

     Band symmetry, C_2v (mm2)  point group:

     e(  1 -  1) =    -63.71167  eV     1   --> A_1  D_1  S_1  
     e(  2 -  2) =    -37.94694  eV     1   --> A_1  D_1  S_1  
     e(  3 -  3) =    -37.80668  eV     1   --> B_2  D_4  S_4  
     e(  4 -  4) =    -37.72711  eV     1   --> B_1  D_3  S_3  
     e(  5 -  5) =    -15.50075  eV     1   --> A_1  D_1  S_1  
     e(  6 -  6) =    -15.02258  eV     1   --> B_2  D_4  S_4  
     e(  7 -  7) =     -8.10155  eV     1   --> A_1  D_1  S_1  
     e(  8 -  8) =     -7.07048  eV     1   --> B_2  D_4  S_4  
     e(  9 -  9) =     -6.73257  eV     1   --> A_1  D_1  S_1  
     e( 10 - 10) =     -5.71597  eV     1   --> A_2  D_2  S_2  
     e( 11 - 11) =     -4.48822  eV     1   --> B_2  D_4  S_4  
     e( 12 - 12) =     -4.12140  eV     1   --> B_1  D_3  S_3  
     e( 13 - 13) =     -3.77636  eV     1   --> A_1  D_1  S_1  
     e( 14 - 14) =     -0.64430  eV     1   --> B_1  D_3  S_3  
     e( 15 - 15) =     -0.45440  eV     1   --> A_1  D_1  S_1  
     e( 16 - 16) =      0.63421  eV     1   --> B_2  D_4  S_4  
     e( 17 - 17) =      1.25649  eV     1   --> A_2  D_2  S_2  

 **************************************************************************

 **************************************************************************

                    xk=(   0.36250,   0.20929,   0.00000  )

     Band symmetry, C_2v (mm2)  point group:

     e(  1 -  1) =    -63.71056  eV     1   --> A_1  D_1  S_1  
     e(  2 -  2) =    -37.95778  eV     1   --> A_1  D_1  S_1  
     e(  3 -  3) =    -37.80443  eV     1   --> B_2  D_4  S_4  
     e(  4 -  4) =    -37.72965  eV     1   --> B_1  D_3  S_3  
     e(  5 -  5) =    -15.43601  eV     1   --> A_1  D_1  S_1  
     e(  6 -  6) =    -14.99696  eV     1   --> B_2  D_4  S_4  
     e(  7 -  7) =     -8.16165  eV     1   --> A_1  D_1  S_1  
     e(  8 -  8) =     -7.14507  eV     1   --> B_2  D_4  S_4  
     e(  9 -  9) =     -6.74200  eV     1   --> A_1  D_1  S_1  
     e( 10 - 10) =     -5.75619  eV     1   --> A_2  D_2  S_2  
     e( 11 - 11) =     -4.52088  eV     1   --> B_2  D_4  S_4  
     e( 12 - 12) =     -4.07169  eV     1   --> B_1  D_3  S_3  
     e( 13 - 13) =     -3.76073  eV     1   --> A_1  D_1  S_1  
     e( 14 - 14) =     -0.64912  eV     1   --> B_1  D_3  S_3  
     e( 15 - 15) =     -0.41660  eV     1   --> A_1  D_1  S_1  
     e( 16 - 16) =      0.69881  eV     1   --> B_2  D_4  S_4  
     e( 17 - 17) =      1.28552  eV     1   --> A_2  D_2  S_2  

 **************************************************************************

 **************************************************************************

                    xk=(   0.37500,   0.21651,   0.00000  )

     Band symmetry, C_2v (mm2)  point group:

     e(  1 -  1) =    -63.70953  eV     1   --> A_1  D_1  S_1  
     e(  2 -  2) =    -37.96791  eV     1   --> A_1  D_1  S_1  
     e(  3 -  3) =    -37.80233  eV     1   --> B_2  D_4  S_4  
     e(  4 -  4) =    -37.73203  eV     1   --> B_1  D_3  S_3  
     e(  5 -  5) =    -15.37430  eV     1   --> A_1  D_1  S_1  
     e(  6 -  6) =    -14.97267  eV     1   --> B_2  D_4  S_4  
     e(  7 -  7) =     -8.22048  eV     1   --> A_1  D_1  S_1  
     e(  8 -  8) =     -7.21493  eV     1   --> B_2  D_4  S_4  
     e(  9 -  9) =     -6.75415  eV     1   --> A_1  D_1  S_1  
     e( 10 - 10) =     -5.79324  eV     1   --> A_2  D_2  S_2  
     e( 11 - 11) =     -4.55061  eV     1   --> B_2  D_4  S_4  
     e( 12 - 12) =     -4.02569  eV     1   --> B_1  D_3  S_3  
     e( 13 - 13) =     -3.73668  eV     1   --> A_1  D_1  S_1  
     e( 14 - 14) =     -0.65114  eV     1   --> B_1  D_3  S_3  
     e( 15 - 15) =     -0.37807  eV     1   --> A_1  D_1  S_1  
     e( 16 - 16) =      0.75890  eV     1   --> B_2  D_4  S_4  
     e( 17 - 17) =      1.31161  eV     1   --> A_2  D_2  S_2  

 **************************************************************************

 **************************************************************************

                    xk=(   0.38750,   0.22372,   0.00000  )

     Band symmetry, C_2v (mm2)  point group:

     e(  1 -  1) =    -63.70857  eV     1   --> A_1  D_1  S_1  
     e(  2 -  2) =    -37.97726  eV     1   --> A_1  D_1  S_1  
     e(  3 -  3) =    -37.80035  eV     1   --> B_2  D_4  S_4  
     e(  4 -  4) =    -37.73419  eV     1   --> B_1  D_3  S_3  
     e(  5 -  5) =    -15.31619  eV     1   --> A_1  D_1  S_1  
     e(  6 -  6) =    -14.94993  eV     1   --> B_2  D_4  S_4  
     e(  7 -  7) =     -8.27694  eV     1   --> A_1  D_1  S_1  
     e(  8 -  8) =     -7.27964  eV     1   --> B_2  D_4  S_4  
     e(  9 -  9) =     -6.76861  eV     1   --> A_1  D_1  S_1  
     e( 10 - 10) =     -5.82701  eV     1   --> A_2  D_2  S_2  
     e( 11 - 11) =     -4.57735  eV     1   --> B_2  D_4  S_4  
     e( 12 - 12) =     -3.98367  eV     1   --> B_1  D_3  S_3  
     e( 13 - 13) =     -3.70592  eV     1   --> A_1  D_1  S_1  
     e( 14 - 14) =     -0.65076  eV     1   --> B_1  D_3  S_3  
     e( 15 - 15) =     -0.33939  eV     1   --> A_1  D_1  S_1  
     e( 16 - 16) =      0.81391  eV     1   --> B_2  D_4  S_4  
     e( 17 - 17) =      1.33482  eV     1   --> A_2  D_2  S_2  

 **************************************************************************

 **************************************************************************

                    xk=(   0.40000,   0.23094,   0.00000  )

     Band symmetry, C_2v (mm2)  point group:

     e(  1 -  1) =    -63.70769  eV     1   --> A_1  D_1  S_1  
     e(  2 -  2) =    -37.98578  eV     1   --> A_1  D_1  S_1  
     e(  3 -  3) =    -37.79858  eV     1   --> B_2  D_4  S_4  
     e(  4 -  4) =    -37.73622  eV     1   --> B_1  D_3  S_3  
     e(  5 -  5) =    -15.26225  eV     1   --> A_1  D_1  S_1  
     e(  6 -  6) =    -14.92894  eV     1   --> B_2  D_4  S_4  
     e(  7 -  7) =     -8.33004  eV     1   --> A_1  D_1  S_1  
     e(  8 -  8) =     -7.33878  eV     1   --> B_2  D_4  S_4  
     e(  9 -  9) =     -6.78471  eV     1   --> A_1  D_1  S_1  
     e( 10 - 10) =     -5.85746  eV     1   --> A_2  D_2  S_2  
     e( 11 - 11) =     -4.60113  eV     1   --> B_2  D_4  S_4  
     e( 12 - 12) =     -3.94583  eV     1   --> B_1  D_3  S_3  
     e( 13 - 13) =     -3.67046  eV     1   --> A_1  D_1  S_1  
     e( 14 - 14) =     -0.64849  eV     1   --> B_1  D_3  S_3  
     e( 15 - 15) =     -0.30121  eV     1   --> A_1  D_1  S_1  
     e( 16 - 16) =      0.86345  eV     1   --> B_2  D_4  S_4  
     e( 17 - 17) =      1.35521  eV     1   --> A_2  D_2  S_2  

 **************************************************************************

 **************************************************************************

                    xk=(   0.41250,   0.23816,   0.00000  )

     Band symmetry, C_2v (mm2)  point group:

     e(  1 -  1) =    -63.70691  eV     1   --> A_1  D_1  S_1  
     e(  2 -  2) =    -37.99339  eV     1   --> A_1  D_1  S_1  
     e(  3 -  3) =    -37.79697  eV     1   --> B_2  D_4  S_4  
     e(  4 -  4) =    -37.73799  eV     1   --> B_1  D_3  S_3  
     e(  5 -  5) =    -15.21304  eV     1   --> A_1  D_1  S_1  
     e(  6 -  6) =    -14.90990  eV     1   --> B_2  D_4  S_4  
     e(  7 -  7) =     -8.37893  eV     1   --> A_1  D_1  S_1  
     e(  8 -  8) =     -7.39195  eV     1   --> B_2  D_4  S_4  
     e(  9 -  9) =     -6.80160  eV     1   --> A_1  D_1  S_1  
     e( 10 - 10) =     -5.88447  eV     1   --> A_2  D_2  S_2  
     e( 11 - 11) =     -4.62195  eV     1   --> B_2  D_4  S_4  
     e( 12 - 12) =     -3.91227  eV     1   --> B_1  D_3  S_3  
     e( 13 - 13) =     -3.63238  eV     1   --> A_1  D_1  S_1  
     e( 14 - 14) =     -0.64472  eV     1   --> B_1  D_3  S_3  
     e( 15 - 15) =     -0.26426  eV     1   --> A_1  D_1  S_1  
     e( 16 - 16) =      0.90730  eV     1   --> B_2  D_4  S_4  
     e( 17 - 17) =      1.37296  eV     1   --> A_2  D_2  S_2  

 **************************************************************************

 **************************************************************************

                    xk=(   0.42500,   0.24537,   0.00000  )

     Band symmetry, C_2v (mm2)  point group:

     e(  1 -  1) =    -63.70622  eV     1   --> A_1  D_1  S_1  
     e(  2 -  2) =    -38.00011  eV     1   --> A_1  D_1  S_1  
     e(  3 -  3) =    -37.79561  eV     1   --> B_2  D_4  S_4  
     e(  4 -  4) =    -37.73957  eV     1   --> B_1  D_3  S_3  
     e(  5 -  5) =    -15.16910  eV     1   --> A_1  D_1  S_1  
     e(  6 -  6) =    -14.89298  eV     1   --> B_2  D_4  S_4  
     e(  7 -  7) =     -8.42291  eV     1   --> A_1  D_1  S_1  
     e(  8 -  8) =     -7.43883  eV     1   --> B_2  D_4  S_4  
     e(  9 -  9) =     -6.81840  eV     1   --> A_1  D_1  S_1  
     e( 10 - 10) =     -5.90802  eV     1   --> A_2  D_2  S_2  
     e( 11 - 11) =     -4.63987  eV     1   --> B_2  D_4  S_4  
     e( 12 - 12) =     -3.88314  eV     1   --> B_1  D_3  S_3  
     e( 13 - 13) =     -3.59395  eV     1   --> A_1  D_1  S_1  
     e( 14 - 14) =     -0.64007  eV     1   --> B_1  D_3  S_3  
     e( 15 - 15) =     -0.22938  eV     1   --> A_1  D_1  S_1  
     e( 16 - 16) =      0.94520  eV     1   --> B_2  D_4  S_4  
     e( 17 - 17) =      1.38807  eV     1   --> A_2  D_2  S_2  

 **************************************************************************

 **************************************************************************

                    xk=(   0.43750,   0.25259,   0.00000  )

     Band symmetry, C_2v (mm2)  point group:

     e(  1 -  1) =    -63.70562  eV     1   --> A_1  D_1  S_1  
     e(  2 -  2) =    -38.00583  eV     1   --> A_1  D_1  S_1  
     e(  3 -  3) =    -37.79438  eV     1   --> B_2  D_4  S_4  
     e(  4 -  4) =    -37.74089  eV     1   --> B_1  D_3  S_3  
     e(  5 -  5) =    -15.13093  eV     1   --> A_1  D_1  S_1  
     e(  6 -  6) =    -14.87835  eV     1   --> B_2  D_4  S_4  
     e(  7 -  7) =     -8.46128  eV     1   --> A_1  D_1  S_1  
     e(  8 -  8) =     -7.47904  eV     1   --> B_2  D_4  S_4  
     e(  9 -  9) =     -6.83422  eV     1   --> A_1  D_1  S_1  
     e( 10 - 10) =     -5.92801  eV     1   --> A_2  D_2  S_2  
     e( 11 - 11) =     -4.65490  eV     1   --> B_2  D_4  S_4  
     e( 12 - 12) =     -3.85845  eV     1   --> B_1  D_3  S_3  
     e( 13 - 13) =     -3.55720  eV     1   --> A_1  D_1  S_1  
     e( 14 - 14) =     -0.63496  eV     1   --> B_1  D_3  S_3  
     e( 15 - 15) =     -0.19742  eV     1   --> A_1  D_1  S_1  
     e( 16 - 16) =      0.97717  eV     1   --> B_2  D_4  S_4  
     e( 17 - 17) =      1.40074  eV     1   --> A_2  D_2  S_2  

 **************************************************************************

 **************************************************************************

                    xk=(   0.45000,   0.25981,   0.00000  )

     Band symmetry, C_2v (mm2)  point group:

     e(  1 -  1) =    -63.70514  eV     1   --> A_1  D_1  S_1  
     e(  2 -  2) =    -38.01058  eV     1   --> A_1  D_1  S_1  
     e(  3 -  3) =    -37.79343  eV     1   --> B_2  D_4  S_4  
     e(  4 -  4) =    -37.74203  eV     1   --> B_1  D_3  S_3  
     e(  5 -  5) =    -15.09900  eV     1   --> A_1  D_1  S_1  
     e(  6 -  6) =    -14.86617  eV     1   --> B_2  D_4  S_4  
     e(  7 -  7) =     -8.49349  eV     1   --> A_1  D_1  S_1  
     e(  8 -  8) =     -7.51236  eV     1   --> B_2  D_4  S_4  
     e(  9 -  9) =     -6.84830  eV     1   --> A_1  D_1  S_1  
     e( 10 - 10) =     -5.94445  eV     1   --> A_2  D_2  S_2  
     e( 11 - 11) =     -4.66714  eV     1   --> B_2  D_4  S_4  
     e( 12 - 12) =     -3.83828  eV     1   --> B_1  D_3  S_3  
     e( 13 - 13) =     -3.52414  eV     1   --> A_1  D_1  S_1  
     e( 14 - 14) =     -0.63002  eV     1   --> B_1  D_3  S_3  
     e( 15 - 15) =     -0.16935  eV     1   --> A_1  D_1  S_1  
     e( 16 - 16) =      1.00313  eV     1   --> B_2  D_4  S_4  
     e( 17 - 17) =      1.41092  eV     1   --> A_2  D_2  S_2  

 **************************************************************************

 **************************************************************************

                    xk=(   0.46250,   0.26702,   0.00000  )

     Band symmetry, C_2v (mm2)  point group:

     e(  1 -  1) =    -63.70476  eV     1   --> A_1  D_1  S_1  
     e(  2 -  2) =    -38.01431  eV     1   --> A_1  D_1  S_1  
     e(  3 -  3) =    -37.79267  eV     1   --> B_2  D_4  S_4  
     e(  4 -  4) =    -37.74288  eV     1   --> B_1  D_3  S_3  
     e(  5 -  5) =    -15.07373  eV     1   --> A_1  D_1  S_1  
     e(  6 -  6) =    -14.85656  eV     1   --> B_2  D_4  S_4  
     e(  7 -  7) =     -8.51906  eV     1   --> A_1  D_1  S_1  
     e(  8 -  8) =     -7.53853  eV     1   --> B_2  D_4  S_4  
     e(  9 -  9) =     -6.85997  eV     1   --> A_1  D_1  S_1  
     e( 10 - 10) =     -5.95726  eV     1   --> A_2  D_2  S_2  
     e( 11 - 11) =     -4.67661  eV     1   --> B_2  D_4  S_4  
     e( 12 - 12) =     -3.82258  eV     1   --> B_1  D_3  S_3  
     e( 13 - 13) =     -3.49648  eV     1   --> A_1  D_1  S_1  
     e( 14 - 14) =     -0.62562  eV     1   --> B_1  D_3  S_3  
     e( 15 - 15) =     -0.14619  eV     1   --> A_1  D_1  S_1  
     e( 16 - 16) =      1.02320  eV     1   --> B_2  D_4  S_4  
     e( 17 - 17) =      1.41880  eV     1   --> A_2  D_2  S_2  

 **************************************************************************

 **************************************************************************

                    xk=(   0.47500,   0.27424,   0.00000  )

     Band symmetry, C_2v (mm2)  point group:

     e(  1 -  1) =    -63.70448  eV     1   --> A_1  D_1  S_1  
     e(  2 -  2) =    -38.01694  eV     1   --> A_1  D_1  S_1  
     e(  3 -  3) =    -37.79210  eV     1   --> B_2  D_4  S_4  
     e(  4 -  4) =    -37.74349  eV     1   --> B_1  D_3  S_3  
     e(  5 -  5) =    -15.05542  eV     1   --> A_1  D_1  S_1  
     e(  6 -  6) =    -14.84961  eV     1   --> B_2  D_4  S_4  
     e(  7 -  7) =     -8.53760  eV     1   --> A_1  D_1  S_1  
     e(  8 -  8) =     -7.55734  eV     1   --> B_2  D_4  S_4  
     e(  9 -  9) =     -6.86867  eV     1   --> A_1  D_1  S_1  
     e( 10 - 10) =     -5.96643  eV     1   --> A_2  D_2  S_2  
     e( 11 - 11) =     -4.68333  eV     1   --> B_2  D_4  S_4  
     e( 12 - 12) =     -3.81137  eV     1   --> B_1  D_3  S_3  
     e( 13 - 13) =     -3.47562  eV     1   --> A_1  D_1  S_1  
     e( 14 - 14) =     -0.62214  eV     1   --> B_1  D_3  S_3  
     e( 15 - 15) =     -0.12880  eV     1   --> A_1  D_1  S_1  
     e( 16 - 16) =      1.03749  eV     1   --> B_2  D_4  S_4  
     e( 17 - 17) =      1.42439  eV     1   --> A_2  D_2  S_2  

 **************************************************************************

 **************************************************************************

                    xk=(   0.48750,   0.28146,   0.00000  )

     Band symmetry, C_2v (mm2)  point group:

     e(  1 -  1) =    -63.70431  eV     1   --> A_1  D_1  S_1  
     e(  2 -  2) =    -38.01851  eV     1   --> A_1  D_1  S_1  
     e(  3 -  3) =    -37.79176  eV     1   --> B_2  D_4  S_4  
     e(  4 -  4) =    -37.74382  eV     1   --> B_1  D_3  S_3  
     e(  5 -  5) =    -15.04433  eV     1   --> A_1  D_1  S_1  
     e(  6 -  6) =    -14.84541  eV     1   --> B_2  D_4  S_4  
     e(  7 -  7) =     -8.54883  eV     1   --> A_1  D_1  S_1  
     e(  8 -  8) =     -7.56868  eV     1   --> B_2  D_4  S_4  
     e(  9 -  9) =     -6.87405  eV     1   --> A_1  D_1  S_1  
     e( 10 - 10) =     -5.97194  eV     1   --> A_2  D_2  S_2  
     e( 11 - 11) =     -4.68735  eV     1   --> B_2  D_4  S_4  
     e( 12 - 12) =     -3.80465  eV     1   --> B_1  D_3  S_3  
     e( 13 - 13) =     -3.46266  eV     1   --> A_1  D_1  S_1  
     e( 14 - 14) =     -0.61987  eV     1   --> B_1  D_3  S_3  
     e( 15 - 15) =     -0.11804  eV     1   --> A_1  D_1  S_1  
     e( 16 - 16) =      1.04602  eV     1   --> B_2  D_4  S_4  
     e( 17 - 17) =      1.42773  eV     1   --> A_2  D_2  S_2  

 **************************************************************************

 **************************************************************************

                    xk=(   0.50000,   0.28868,   0.00000  )

     Band symmetry, C_2v (mm2)  point group:

     e(  1 -  1) =    -63.70425  eV     1   --> A_1  D_1  S_1  
     e(  2 -  2) =    -38.01909  eV     1   --> A_1  D_1  S_1  
     e(  3 -  3) =    -37.79167  eV     1   --> B_2  D_4  S_4  
     e(  4 -  4) =    -37.74394  eV     1   --> B_1  D_3  S_3  
     e(  5 -  5) =    -15.04063  eV     1   --> A_1  D_1  S_1  
     e(  6 -  6) =    -14.84401  eV     1   --> B_2  D_4  S_4  
     e(  7 -  7) =     -8.55261  eV     1   --> A_1  D_1  S_1  
     e(  8 -  8) =     -7.57248  eV     1   --> B_2  D_4  S_4  
     e(  9 -  9) =     -6.87587  eV     1   --> A_1  D_1  S_1  
     e( 10 - 10) =     -5.97377  eV     1   --> A_2  D_2  S_2  
     e( 11 - 11) =     -4.68869  eV     1   --> B_2  D_4  S_4  
     e( 12 - 12) =     -3.80241  eV     1   --> B_1  D_3  S_3  
     e( 13 - 13) =     -3.45830  eV     1   --> A_1  D_1  S_1  
     e( 14 - 14) =     -0.61912  eV     1   --> B_1  D_3  S_3  
     e( 15 - 15) =     -0.11442  eV     1   --> A_1  D_1  S_1  
     e( 16 - 16) =      1.04883  eV     1   --> B_2  D_4  S_4  
     e( 17 - 17) =      1.42884  eV     1   --> A_2  D_2  S_2  

 **************************************************************************

 **************************************************************************

                    xk=(   0.49150,   0.30282,   0.00000  )

     point group C_s (m)    
     there are  2 classes
     the character table:

       E     s    
A'     1.00  1.00
A''    1.00 -1.00

     the symmetry operations in each class and the name of the first element:

     E        1
                                                                 
     s        2
                                                                 

     Band symmetry, C_s (m)     point group:

     e(  1 -  1) =    -63.70423  eV     1   --> A'             
     e(  2 -  2) =    -38.01879  eV     1   --> A'             
     e(  3 -  3) =    -37.79160  eV     1   --> A''            
     e(  4 -  4) =    -37.74459  eV     1   --> A'             
     e(  5 -  5) =    -15.03931  eV     1   --> A'             
     e(  6 -  6) =    -14.84318  eV     1   --> A''            
     e(  7 -  7) =     -8.54860  eV     1   --> A'             
     e(  8 -  8) =     -7.57564  eV     1   --> A''            
     e(  9 -  9) =     -6.87449  eV     1   --> A'             
     e( 10 - 10) =     -5.97454  eV     1   --> A''            
     e( 11 - 11) =     -4.68784  eV     1   --> A''            
     e( 12 - 12) =     -3.83292  eV     1   --> A'             
     e( 13 - 13) =     -3.44153  eV     1   --> A'             
     e( 14 - 14) =     -0.61758  eV     1   --> A'             
     e( 15 - 15) =     -0.11309  eV     1   --> A'             
     e( 16 - 16) =      1.05401  eV     1   --> A''            
     e( 17 - 17) =      1.41669  eV     1   --> A''            

 **************************************************************************

 **************************************************************************

                    xk=(   0.48300,   0.31697,   0.00000  )

     Band symmetry, C_s (m)     point group:

     e(  1 -  1) =    -63.70416  eV     1   --> A'             
     e(  2 -  2) =    -38.01791  eV     1   --> A'             
     e(  3 -  3) =    -37.79144  eV     1   --> A''            
     e(  4 -  4) =    -37.74639  eV     1   --> A'             
     e(  5 -  5) =    -15.03539  eV     1   --> A'             
     e(  6 -  6) =    -14.84069  eV     1   --> A''            
     e(  7 -  7) =     -8.53659  eV     1   --> A'             
     e(  8 -  8) =     -7.58511  eV     1   --> A''            
     e(  9 -  9) =     -6.87038  eV     1   --> A'             
     e( 10 - 10) =     -5.97664  eV     1   --> A''            
     e( 11 - 11) =     -4.68548  eV     1   --> A''            
     e( 12 - 12) =     -3.91166  eV     1   --> A'             
     e( 13 - 13) =     -3.40343  eV     1   --> A'             
     e( 14 - 14) =     -0.61332  eV     1   --> A'             
     e( 15 - 15) =     -0.10888  eV     1   --> A'             
     e( 16 - 16) =      1.06903  eV     1   --> A''            
     e( 17 - 17) =      1.38171  eV     1   --> A''            

 **************************************************************************

 **************************************************************************

                    xk=(   0.47450,   0.33111,   0.00000  )

     Band symmetry, C_s (m)     point group:

     e(  1 -  1) =    -63.70404  eV     1   --> A'             
     e(  2 -  2) =    -38.01644  eV     1   --> A'             
     e(  3 -  3) =    -37.79120  eV     1   --> A''            
     e(  4 -  4) =    -37.74937  eV     1   --> A'             
     e(  5 -  5) =    -15.02892  eV     1   --> A'             
     e(  6 -  6) =    -14.83660  eV     1   --> A''            
     e(  7 -  7) =     -8.51666  eV     1   --> A'             
     e(  8 -  8) =     -7.60082  eV     1   --> A''            
     e(  9 -  9) =     -6.86363  eV     1   --> A'             
     e( 10 - 10) =     -5.97949  eV     1   --> A''            
     e( 11 - 11) =     -4.68212  eV     1   --> A''            
     e( 12 - 12) =     -4.02069  eV     1   --> A'             
     e( 13 - 13) =     -3.36041  eV     1   --> A'             
     e( 14 - 14) =     -0.60794  eV     1   --> A'             
     e( 15 - 15) =     -0.10077  eV     1   --> A'             
     e( 16 - 16) =      1.09178  eV     1   --> A''            
     e( 17 - 17) =      1.32853  eV     1   --> A''            

 **************************************************************************

 **************************************************************************

                    xk=(   0.46600,   0.34526,   0.00000  )

     Band symmetry, C_s (m)     point group:

     e(  1 -  1) =    -63.70388  eV     1   --> A'             
     e(  2 -  2) =    -38.01438  eV     1   --> A'             
     e(  3 -  3) =    -37.79088  eV     1   --> A''            
     e(  4 -  4) =    -37.75358  eV     1   --> A'             
     e(  5 -  5) =    -15.02001  eV     1   --> A'             
     e(  6 -  6) =    -14.83096  eV     1   --> A''            
     e(  7 -  7) =     -8.48891  eV     1   --> A'             
     e(  8 -  8) =     -7.62260  eV     1   --> A''            
     e(  9 -  9) =     -6.85442  eV     1   --> A'             
     e( 10 - 10) =     -5.98220  eV     1   --> A''            
     e( 11 - 11) =     -4.67857  eV     1   --> A''            
     e( 12 - 12) =     -4.15022  eV     1   --> A'             
     e( 13 - 13) =     -3.31993  eV     1   --> A'             
     e( 14 - 14) =     -0.60380  eV     1   --> A'             
     e( 15 - 15) =     -0.08723  eV     1   --> A'             
     e( 16 - 16) =      1.11392  eV     1   --> A''            
     e( 17 - 17) =      1.26902  eV     1   --> A''            

 **************************************************************************

 **************************************************************************

                    xk=(   0.45750,   0.35940,   0.00000  )

     Band symmetry, C_s (m)     point group:

     e(  1 -  1) =    -63.70368  eV     1   --> A'             
     e(  2 -  2) =    -38.01175  eV     1   --> A'             
     e(  3 -  3) =    -37.79052  eV     1   --> A''            
     e(  4 -  4) =    -37.75889  eV     1   --> A'             
     e(  5 -  5) =    -15.00880  eV     1   --> A'             
     e(  6 -  6) =    -14.82390  eV     1   --> A''            
     e(  7 -  7) =     -8.45350  eV     1   --> A'             
     e(  8 -  8) =     -7.65017  eV     1   --> A''            
     e(  9 -  9) =     -6.84296  eV     1   --> A'             
     e( 10 - 10) =     -5.98377  eV     1   --> A''            
     e( 11 - 11) =     -4.67579  eV     1   --> A''            
     e( 12 - 12) =     -4.29528  eV     1   --> A'             
     e( 13 - 13) =     -3.28380  eV     1   --> A'             
     e( 14 - 14) =     -0.60368  eV     1   --> A'             
     e( 15 - 15) =     -0.06654  eV     1   --> A'             
     e( 16 - 16) =      1.10062  eV     1   --> A''            
     e( 17 - 17) =      1.24177  eV     1   --> A''            

 **************************************************************************

 **************************************************************************

                    xk=(   0.44900,   0.37355,   0.00000  )

     Band symmetry, C_s (m)     point group:

     e(  1 -  1) =    -63.70345  eV     1   --> A'             
     e(  2 -  2) =    -38.00860  eV     1   --> A'             
     e(  3 -  3) =    -37.79005  eV     1   --> A''            
     e(  4 -  4) =    -37.76523  eV     1   --> A'             
     e(  5 -  5) =    -14.99550  eV     1   --> A'             
     e(  6 -  6) =    -14.81553  eV     1   --> A''            
     e(  7 -  7) =     -8.41061  eV     1   --> A'             
     e(  8 -  8) =     -7.68309  eV     1   --> A''            
     e(  9 -  9) =     -6.82950  eV     1   --> A'             
     e( 10 - 10) =     -5.98313  eV     1   --> A''            
     e( 11 - 11) =     -4.67478  eV     1   --> A''            
     e( 12 - 12) =     -4.45261  eV     1   --> A'             
     e( 13 - 13) =     -3.25180  eV     1   --> A'             
     e( 14 - 14) =     -0.61021  eV     1   --> A'             
     e( 15 - 15) =     -0.03729  eV     1   --> A'             
     e( 16 - 16) =      1.02967  eV     1   --> A''            
     e( 17 - 17) =      1.27250  eV     1   --> A''            

 **************************************************************************

 **************************************************************************

                    xk=(   0.44050,   0.38769,   0.00000  )

     Band symmetry, C_s (m)     point group:

     e(  1 -  1) =    -63.70318  eV     1   --> A'             
     e(  2 -  2) =    -38.00486  eV     1   --> A'             
     e(  3 -  3) =    -37.78952  eV     1   --> A''            
     e(  4 -  4) =    -37.77252  eV     1   --> A'             
     e(  5 -  5) =    -14.98031  eV     1   --> A'             
     e(  6 -  6) =    -14.80601  eV     1   --> A''            
     e(  7 -  7) =     -8.36050  eV     1   --> A'             
     e(  8 -  8) =     -7.72079  eV     1   --> A''            
     e(  9 -  9) =     -6.81438  eV     1   --> A'             
     e( 10 - 10) =     -5.97938  eV     1   --> A''            
     e( 11 - 11) =     -4.67652  eV     1   --> A''            
     e( 12 - 12) =     -4.61962  eV     1   --> A'             
     e( 13 - 13) =     -3.22277  eV     1   --> A'             
     e( 14 - 14) =     -0.62509  eV     1   --> A'             
     e( 15 - 15) =      0.00118  eV     1   --> A'             
     e( 16 - 16) =      0.93778  eV     1   --> A''            
     e( 17 - 17) =      1.32718  eV     1   --> A''            

 **************************************************************************

 **************************************************************************

                    xk=(   0.43200,   0.40184,   0.00000  )

     Band symmetry, C_s (m)     point group:

     e(  1 -  1) =    -63.70287  eV     1   --> A'             
     e(  2 -  2) =    -38.00059  eV     1   --> A'             
     e(  3 -  3) =    -37.78888  eV     1   --> A''            
     e(  4 -  4) =    -37.78064  eV     1   --> A'             
     e(  5 -  5) =    -14.96350  eV     1   --> A'             
     e(  6 -  6) =    -14.79553  eV     1   --> A''            
     e(  7 -  7) =     -8.30344  eV     1   --> A'             
     e(  8 -  8) =     -7.76245  eV     1   --> A''            
     e(  9 -  9) =     -6.79798  eV     1   --> A'             
     e( 10 - 10) =     -5.97182  eV     1   --> A''            
     e( 11 - 11) =     -4.79392  eV     1   --> A'             
     e( 12 - 12) =     -4.68187  eV     1   --> A''            
     e( 13 - 13) =     -3.19533  eV     1   --> A'             
     e( 14 - 14) =     -0.64903  eV     1   --> A'             
     e( 15 - 15) =      0.04847  eV     1   --> A'             
     e( 16 - 16) =      0.84143  eV     1   --> A''            
     e( 17 - 17) =      1.39139  eV     1   --> A''            

 **************************************************************************

 **************************************************************************

                    xk=(   0.42350,   0.41598,   0.00000  )

     Band symmetry, C_s (m)     point group:

     e(  1 -  1) =    -63.70255  eV     1   --> A'             
     e(  2 -  2) =    -37.99582  eV     1   --> A'             
     e(  3 -  3) =    -37.78954  eV     1   --> A'             
     e(  4 -  4) =    -37.78822  eV     1   --> A''            
     e(  5 -  5) =    -14.94540  eV     1   --> A'             
     e(  6 -  6) =    -14.78429  eV     1   --> A''            
     e(  7 -  7) =     -8.23978  eV     1   --> A'             
     e(  8 -  8) =     -7.80719  eV     1   --> A''            
     e(  9 -  9) =     -6.78075  eV     1   --> A'             
     e( 10 - 10) =     -5.95998  eV     1   --> A''            
     e( 11 - 11) =     -4.97329  eV     1   --> A'             
     e( 12 - 12) =     -4.69152  eV     1   --> A''            
     e( 13 - 13) =     -3.16814  eV     1   --> A'             
     e( 14 - 14) =     -0.68179  eV     1   --> A'             
     e( 15 - 15) =      0.10337  eV     1   --> A'             
     e( 16 - 16) =      0.74626  eV     1   --> A''            
     e( 17 - 17) =      1.46057  eV     1   --> A''            

 **************************************************************************

 **************************************************************************

                    xk=(   0.41500,   0.43013,   0.00000  )

     Band symmetry, C_s (m)     point group:

     e(  1 -  1) =    -63.70222  eV     1   --> A'             
     e(  2 -  2) =    -37.99060  eV     1   --> A'             
     e(  3 -  3) =    -37.79906  eV     1   --> A'             
     e(  4 -  4) =    -37.78755  eV     1   --> A''            
     e(  5 -  5) =    -14.92634  eV     1   --> A'             
     e(  6 -  6) =    -14.77253  eV     1   --> A''            
     e(  7 -  7) =     -8.16990  eV     1   --> A'             
     e(  8 -  8) =     -7.85394  eV     1   --> A''            
     e(  9 -  9) =     -6.76321  eV     1   --> A'             
     e( 10 - 10) =     -5.94368  eV     1   --> A''            
     e( 11 - 11) =     -5.15550  eV     1   --> A'             
     e( 12 - 12) =     -4.70595  eV     1   --> A''            
     e( 13 - 13) =     -3.13999  eV     1   --> A'             
     e( 14 - 14) =     -0.72253  eV     1   --> A'             
     e( 15 - 15) =      0.16416  eV     1   --> A'             
     e( 16 - 16) =      0.65551  eV     1   --> A''            
     e( 17 - 17) =      1.53205  eV     1   --> A''            

 **************************************************************************

 **************************************************************************

                    xk=(   0.40650,   0.44427,   0.00000  )

     Band symmetry, C_s (m)     point group:

     e(  1 -  1) =    -63.70188  eV     1   --> A'             
     e(  2 -  2) =    -37.98494  eV     1   --> A'             
     e(  3 -  3) =    -37.80918  eV     1   --> A'             
     e(  4 -  4) =    -37.78687  eV     1   --> A''            
     e(  5 -  5) =    -14.90670  eV     1   --> A'             
     e(  6 -  6) =    -14.76050  eV     1   --> A''            
     e(  7 -  7) =     -8.09428  eV     1   --> A'             
     e(  8 -  8) =     -7.90154  eV     1   --> A''            
     e(  9 -  9) =     -6.74601  eV     1   --> A'             
     e( 10 - 10) =     -5.92295  eV     1   --> A''            
     e( 11 - 11) =     -5.33831  eV     1   --> A'             
     e( 12 - 12) =     -4.72537  eV     1   --> A''            
     e( 13 - 13) =     -3.10999  eV     1   --> A'             
     e( 14 - 14) =     -0.77001  eV     1   --> A'             
     e( 15 - 15) =      0.22905  eV     1   --> A'             
     e( 16 - 16) =      0.57132  eV     1   --> A''            
     e( 17 - 17) =      1.60364  eV     1   --> A''            

 **************************************************************************

 **************************************************************************

                    xk=(   0.39800,   0.45842,   0.00000  )

     Band symmetry, C_s (m)     point group:

     e(  1 -  1) =    -63.70155  eV     1   --> A'             
     e(  2 -  2) =    -37.97890  eV     1   --> A'             
     e(  3 -  3) =    -37.81973  eV     1   --> A'             
     e(  4 -  4) =    -37.78621  eV     1   --> A''            
     e(  5 -  5) =    -14.88691  eV     1   --> A'             
     e(  6 -  6) =    -14.74847  eV     1   --> A''            
     e(  7 -  7) =     -8.01345  eV     1   --> A'             
     e(  8 -  8) =     -7.94879  eV     1   --> A''            
     e(  9 -  9) =     -6.72993  eV     1   --> A'             
     e( 10 - 10) =     -5.89813  eV     1   --> A''            
     e( 11 - 11) =     -5.51936  eV     1   --> A'             
     e( 12 - 12) =     -4.74968  eV     1   --> A''            
     e( 13 - 13) =     -3.07759  eV     1   --> A'             
     e( 14 - 14) =     -0.82280  eV     1   --> A'             
     e( 15 - 15) =      0.29610  eV     1   --> A'             
     e( 16 - 16) =      0.49519  eV     1   --> A''            
     e( 17 - 17) =      1.67329  eV     1   --> A''            

 **************************************************************************

 **************************************************************************

                    xk=(   0.38950,   0.47256,   0.00000  )

     Band symmetry, C_s (m)     point group:

     e(  1 -  1) =    -63.70121  eV     1   --> A'             
     e(  2 -  2) =    -37.97249  eV     1   --> A'             
     e(  3 -  3) =    -37.83038  eV     1   --> A'             
     e(  4 -  4) =    -37.78553  eV     1   --> A''            
     e(  5 -  5) =    -14.86739  eV     1   --> A'             
     e(  6 -  6) =    -14.73673  eV     1   --> A''            
     e(  7 -  7) =     -7.99447  eV     1   --> A''            
     e(  8 -  8) =     -7.92805  eV     1   --> A'             
     e(  9 -  9) =     -6.71596  eV     1   --> A'             
     e( 10 - 10) =     -5.86971  eV     1   --> A''            
     e( 11 - 11) =     -5.69593  eV     1   --> A'             
     e( 12 - 12) =     -4.77848  eV     1   --> A''            
     e( 13 - 13) =     -3.04258  eV     1   --> A'             
     e( 14 - 14) =     -0.87922  eV     1   --> A'             
     e( 15 - 15) =      0.36347  eV     1   --> A'             
     e( 16 - 16) =      0.42824  eV     1   --> A''            
     e( 17 - 17) =      1.73919  eV     1   --> A''            

 **************************************************************************

 **************************************************************************

                    xk=(   0.38100,   0.48671,   0.00000  )

     Band symmetry, C_s (m)     point group:

     e(  1 -  1) =    -63.70090  eV     1   --> A'             
     e(  2 -  2) =    -37.96582  eV     1   --> A'             
     e(  3 -  3) =    -37.84113  eV     1   --> A'             
     e(  4 -  4) =    -37.78489  eV     1   --> A''            
     e(  5 -  5) =    -14.84865  eV     1   --> A'             
     e(  6 -  6) =    -14.72557  eV     1   --> A''            
     e(  7 -  7) =     -8.03743  eV     1   --> A''            
     e(  8 -  8) =     -7.83895  eV     1   --> A'             
     e(  9 -  9) =     -6.70576  eV     1   --> A'             
     e( 10 - 10) =     -5.86474  eV     1   --> A'             
     e( 11 - 11) =     -5.83853  eV     1   --> A''            
     e( 12 - 12) =     -4.81098  eV     1   --> A''            
     e( 13 - 13) =     -3.00545  eV     1   --> A'             
     e( 14 - 14) =     -0.93741  eV     1   --> A'             
     e( 15 - 15) =      0.37098  eV     1   --> A''            
     e( 16 - 16) =      0.42922  eV     1   --> A'             
     e( 17 - 17) =      1.79958  eV     1   --> A''            

 **************************************************************************

 **************************************************************************

                    xk=(   0.37250,   0.50085,   0.00000  )

     Band symmetry, C_s (m)     point group:

     e(  1 -  1) =    -63.70060  eV     1   --> A'             
     e(  2 -  2) =    -37.95892  eV     1   --> A'             
     e(  3 -  3) =    -37.85176  eV     1   --> A'             
     e(  4 -  4) =    -37.78428  eV     1   --> A''            
     e(  5 -  5) =    -14.83118  eV     1   --> A'             
     e(  6 -  6) =    -14.71529  eV     1   --> A''            
     e(  7 -  7) =     -8.07653  eV     1   --> A''            
     e(  8 -  8) =     -7.74727  eV     1   --> A'             
     e(  9 -  9) =     -6.70198  eV     1   --> A'             
     e( 10 - 10) =     -6.02115  eV     1   --> A'             
     e( 11 - 11) =     -5.80569  eV     1   --> A''            
     e( 12 - 12) =     -4.84597  eV     1   --> A''            
     e( 13 - 13) =     -2.96713  eV     1   --> A'             
     e( 14 - 14) =     -0.99515  eV     1   --> A'             
     e( 15 - 15) =      0.32361  eV     1   --> A''            
     e( 16 - 16) =      0.49137  eV     1   --> A'             
     e( 17 - 17) =      1.85297  eV     1   --> A''            

 **************************************************************************

 **************************************************************************

                    xk=(   0.36400,   0.51500,   0.00000  )

     Band symmetry, C_s (m)     point group:

     e(  1 -  1) =    -63.70035  eV     1   --> A'             
     e(  2 -  2) =    -37.95198  eV     1   --> A'             
     e(  3 -  3) =    -37.86203  eV     1   --> A'             
     e(  4 -  4) =    -37.78378  eV     1   --> A''            
     e(  5 -  5) =    -14.81550  eV     1   --> A'             
     e(  6 -  6) =    -14.70618  eV     1   --> A''            
[...]

 **************************************************************************

                    xk=(   0.00000,   0.00000,   0.01001  )

     Band symmetry, C_3v (3m)   point group:

     e(  1 -  1) =    -63.74008  eV     1   --> A_1  L_1       
     e(  2 -  2) =    -37.86412  eV     1   --> A_1  L_1       
     e(  3 -  4) =    -37.66097  eV     2   --> E    L_3       
     e(  5 -  5) =    -16.87513  eV     1   --> A_1  L_1       
     e(  6 -  6) =    -15.58676  eV     1   --> A_1  L_1       
     e(  7 -  7) =     -8.40736  eV     1   --> A_1  L_1       
     e(  8 -  9) =     -5.42756  eV     2   --> E    L_3       
     e( 10 - 10) =     -4.56670  eV     1   --> A_1  L_1       
     e( 11 - 12) =     -4.32409  eV     2   --> E    L_3       
     e( 13 - 13) =     -2.82317  eV     1   --> A_1  L_1       
     e( 14 - 15) =     -0.07459  eV     2   --> E    L_3       
     e( 16 - 17) =      0.15258  eV     2   --> E    L_3       

 **************************************************************************

 **************************************************************************

                    xk=(   0.00000,   0.00000,   0.01126  )

     Band symmetry, C_3v (3m)   point group:

     e(  1 -  1) =    -63.74008  eV     1   --> A_1  L_1       
     e(  2 -  2) =    -37.86412  eV     1   --> A_1  L_1       
     e(  3 -  4) =    -37.66097  eV     2   --> E    L_3       
     e(  5 -  5) =    -16.87513  eV     1   --> A_1  L_1       
     e(  6 -  6) =    -15.58676  eV     1   --> A_1  L_1       
     e(  7 -  7) =     -8.40736  eV     1   --> A_1  L_1       
     e(  8 -  9) =     -5.42756  eV     2   --> E    L_3       
     e( 10 - 10) =     -4.56670  eV     1   --> A_1  L_1       
     e( 11 - 12) =     -4.32409  eV     2   --> E    L_3       
     e( 13 - 13) =     -2.82317  eV     1   --> A_1  L_1       
     e( 14 - 15) =     -0.07459  eV     2   --> E    L_3       
     e( 16 - 17) =      0.15258  eV     2   --> E    L_3       

 **************************************************************************

 **************************************************************************

                    xk=(   0.00000,   0.00000,   0.01251  )

     Band symmetry, C_3v (3m)   point group:

     e(  1 -  1) =    -63.74008  eV     1   --> A_1  L_1       
     e(  2 -  2) =    -37.86412  eV     1   --> A_1  L_1       
     e(  3 -  4) =    -37.66098  eV     2   --> E    L_3       
     e(  5 -  5) =    -16.87513  eV     1   --> A_1  L_1       
     e(  6 -  6) =    -15.58676  eV     1   --> A_1  L_1       
     e(  7 -  7) =     -8.40736  eV     1   --> A_1  L_1       
     e(  8 -  9) =     -5.42757  eV     2   --> E    L_3       
     e( 10 - 10) =     -4.56670  eV     1   --> A_1  L_1       
     e( 11 - 12) =     -4.32409  eV     2   --> E    L_3       
     e( 13 - 13) =     -2.82317  eV     1   --> A_1  L_1       
     e( 14 - 15) =     -0.07459  eV     2   --> E    L_3       
     e( 16 - 17) =      0.15258  eV     2   --> E    L_3       

 **************************************************************************

 **************************************************************************

                    xk=(   0.00000,   0.00000,   0.01376  )

     Band symmetry, C_3v (3m)   point group:

     e(  1 -  1) =    -63.74008  eV     1   --> A_1  L_1       
     e(  2 -  2) =    -37.86412  eV     1   --> A_1  L_1       
     e(  3 -  4) =    -37.66098  eV     2   --> E    L_3       
     e(  5 -  5) =    -16.87513  eV     1   --> A_1  L_1       
     e(  6 -  6) =    -15.58676  eV     1   --> A_1  L_1       
     e(  7 -  7) =     -8.40736  eV     1   --> A_1  L_1       
     e(  8 -  9) =     -5.42757  eV     2   --> E    L_3       
     e( 10 - 10) =     -4.56670  eV     1   --> A_1  L_1       
     e( 11 - 12) =     -4.32409  eV     2   --> E    L_3       
     e( 13 - 13) =     -2.82317  eV     1   --> A_1  L_1       
     e( 14 - 15) =     -0.07459  eV     2   --> E    L_3       
     e( 16 - 17) =      0.15258  eV     2   --> E    L_3       

 **************************************************************************

 **************************************************************************

                    xk=(   0.00000,   0.00000,   0.01501  )

     Band symmetry, C_3v (3m)   point group:

     e(  1 -  1) =    -63.74008  eV     1   --> A_1  L_1       
     e(  2 -  2) =    -37.86411  eV     1   --> A_1  L_1       
     e(  3 -  4) =    -37.66098  eV     2   --> E    L_3       
     e(  5 -  5) =    -16.87513  eV     1   --> A_1  L_1       
     e(  6 -  6) =    -15.58676  eV     1   --> A_1  L_1       
     e(  7 -  7) =     -8.40736  eV     1   --> A_1  L_1       
     e(  8 -  9) =     -5.42757  eV     2   --> E    L_3       
     e( 10 - 10) =     -4.56670  eV     1   --> A_1  L_1       
     e( 11 - 12) =     -4.32410  eV     2   --> E    L_3       
     e( 13 - 13) =     -2.82315  eV     1   --> A_1  L_1       
     e( 14 - 15) =     -0.07460  eV     2   --> E    L_3       
     e( 16 - 17) =      0.15258  eV     2   --> E    L_3       

 **************************************************************************

 **************************************************************************

                    xk=(   0.00000,   0.00000,   0.01626  )

     Band symmetry, C_3v (3m)   point group:

     e(  1 -  1) =    -63.74008  eV     1   --> A_1  L_1       
     e(  2 -  2) =    -37.86411  eV     1   --> A_1  L_1       
     e(  3 -  4) =    -37.66098  eV     2   --> E    L_3       
     e(  5 -  5) =    -16.87513  eV     1   --> A_1  L_1       
     e(  6 -  6) =    -15.58676  eV     1   --> A_1  L_1       
     e(  7 -  7) =     -8.40736  eV     1   --> A_1  L_1       
     e(  8 -  9) =     -5.42757  eV     2   --> E    L_3       
     e( 10 - 10) =     -4.56670  eV     1   --> A_1  L_1       
     e( 11 - 12) =     -4.32410  eV     2   --> E    L_3       
     e( 13 - 13) =     -2.82315  eV     1   --> A_1  L_1       
     e( 14 - 15) =     -0.07460  eV     2   --> E    L_3       
     e( 16 - 17) =      0.15258  eV     2   --> E    L_3       

 **************************************************************************

 **************************************************************************

                    xk=(   0.00000,   0.00000,   0.01751  )

     Band symmetry, C_3v (3m)   point group:

     e(  1 -  1) =    -63.74008  eV     1   --> A_1  L_1       
     e(  2 -  2) =    -37.86411  eV     1   --> A_1  L_1       
     e(  3 -  4) =    -37.66098  eV     2   --> E    L_3       
     e(  5 -  5) =    -16.87513  eV     1   --> A_1  L_1       
     e(  6 -  6) =    -15.58676  eV     1   --> A_1  L_1       
     e(  7 -  7) =     -8.40736  eV     1   --> A_1  L_1       
     e(  8 -  9) =     -5.42757  eV     2   --> E    L_3       
     e( 10 - 10) =     -4.56670  eV     1   --> A_1  L_1       
     e( 11 - 12) =     -4.32410  eV     2   --> E    L_3       
     e( 13 - 13) =     -2.82315  eV     1   --> A_1  L_1       
     e( 14 - 15) =     -0.07460  eV     2   --> E    L_3       
     e( 16 - 17) =      0.15258  eV     2   --> E    L_3       

 **************************************************************************

 **************************************************************************

                    xk=(   0.00000,   0.00000,   0.01877  )

     Band symmetry, C_3v (3m)   point group:

     e(  1 -  1) =    -63.74008  eV     1   --> A_1  L_1       
     e(  2 -  2) =    -37.86411  eV     1   --> A_1  L_1       
     e(  3 -  4) =    -37.66098  eV     2   --> E    L_3       
     e(  5 -  5) =    -16.87513  eV     1   --> A_1  L_1       
     e(  6 -  6) =    -15.58676  eV     1   --> A_1  L_1       
     e(  7 -  7) =     -8.40736  eV     1   --> A_1  L_1       
     e(  8 -  9) =     -5.42757  eV     2   --> E    L_3       
     e( 10 - 10) =     -4.56670  eV     1   --> A_1  L_1       
     e( 11 - 12) =     -4.32410  eV     2   --> E    L_3       
     e( 13 - 13) =     -2.82315  eV     1   --> A_1  L_1       
     e( 14 - 15) =     -0.07460  eV     2   --> E    L_3       
     e( 16 - 17) =      0.15258  eV     2   --> E    L_3       

 **************************************************************************

 **************************************************************************

                    xk=(   0.00000,   0.00000,   0.02002  )

     Band symmetry, C_3v (3m)   point group:

     e(  1 -  1) =    -63.74009  eV     1   --> A_1  L_1       
     e(  2 -  2) =    -37.86413  eV     1   --> A_1  L_1       
     e(  3 -  4) =    -37.66101  eV     2   --> E    L_3       
     e(  5 -  5) =    -16.87513  eV     1   --> A_1  L_1       
     e(  6 -  6) =    -15.58676  eV     1   --> A_1  L_1       
     e(  7 -  7) =     -8.40736  eV     1   --> A_1  L_1       
     e(  8 -  9) =     -5.42758  eV     2   --> E    L_3       
     e( 10 - 10) =     -4.56670  eV     1   --> A_1  L_1       
     e( 11 - 12) =     -4.32412  eV     2   --> E    L_3       
     e( 13 - 13) =     -2.82315  eV     1   --> A_1  L_1       
     e( 14 - 15) =     -0.07461  eV     2   --> E    L_3       
     e( 16 - 17) =      0.15257  eV     2   --> E    L_3       

 **************************************************************************

 **************************************************************************

                    xk=(   0.00000,   0.00000,   0.02127  )

     Band symmetry, C_3v (3m)   point group:

     e(  1 -  1) =    -63.74008  eV     1   --> A_1  L_1       
     e(  2 -  2) =    -37.86409  eV     1   --> A_1  L_1       
     e(  3 -  4) =    -37.66099  eV     2   --> E    L_3       
     e(  5 -  5) =    -16.87513  eV     1   --> A_1  L_1       
     e(  6 -  6) =    -15.58676  eV     1   --> A_1  L_1       
     e(  7 -  7) =     -8.40736  eV     1   --> A_1  L_1       
     e(  8 -  9) =     -5.42757  eV     2   --> E    L_3       
     e( 10 - 10) =     -4.56669  eV     1   --> A_1  L_1       
     e( 11 - 12) =     -4.32410  eV     2   --> E    L_3       
     e( 13 - 13) =     -2.82315  eV     1   --> A_1  L_1       
     e( 14 - 15) =     -0.07459  eV     2   --> E    L_3       
     e( 16 - 17) =      0.15258  eV     2   --> E    L_3       

 **************************************************************************

 **************************************************************************

                    xk=(   0.00000,   0.00000,   0.02252  )

     Band symmetry, C_3v (3m)   point group:

     e(  1 -  1) =    -63.74008  eV     1   --> A_1  L_1       
     e(  2 -  2) =    -37.86409  eV     1   --> A_1  L_1       
     e(  3 -  4) =    -37.66099  eV     2   --> E    L_3       
     e(  5 -  5) =    -16.87513  eV     1   --> A_1  L_1       
     e(  6 -  6) =    -15.58676  eV     1   --> A_1  L_1       
     e(  7 -  7) =     -8.40736  eV     1   --> A_1  L_1       
     e(  8 -  9) =     -5.42757  eV     2   --> E    L_3       
     e( 10 - 10) =     -4.56669  eV     1   --> A_1  L_1       
     e( 11 - 12) =     -4.32410  eV     2   --> E    L_3       
     e( 13 - 13) =     -2.82315  eV     1   --> A_1  L_1       
     e( 14 - 15) =     -0.07459  eV     2   --> E    L_3       
     e( 16 - 17) =      0.15258  eV     2   --> E    L_3       

 **************************************************************************

 **************************************************************************

                    xk=(   0.00000,   0.00000,   0.02377  )

     Band symmetry, C_3v (3m)   point group:

     e(  1 -  1) =    -63.74008  eV     1   --> A_1  L_1       
     e(  2 -  2) =    -37.86409  eV     1   --> A_1  L_1       
     e(  3 -  4) =    -37.66099  eV     2   --> E    L_3       
     e(  5 -  5) =    -16.87513  eV     1   --> A_1  L_1       
     e(  6 -  6) =    -15.58676  eV     1   --> A_1  L_1       
     e(  7 -  7) =     -8.40736  eV     1   --> A_1  L_1       
     e(  8 -  9) =     -5.42757  eV     2   --> E    L_3       
     e( 10 - 10) =     -4.56669  eV     1   --> A_1  L_1       
     e( 11 - 12) =     -4.32410  eV     2   --> E    L_3       
     e( 13 - 13) =     -2.82315  eV     1   --> A_1  L_1       
     e( 14 - 15) =     -0.07459  eV     2   --> E    L_3       
     e( 16 - 17) =      0.15258  eV     2   --> E    L_3       

 **************************************************************************

 **************************************************************************

                    xk=(   0.00000,   0.00000,   0.02502  )

     Band symmetry, C_3v (3m)   point group:

     e(  1 -  1) =    -63.74008  eV     1   --> A_1  L_1       
     e(  2 -  2) =    -37.86409  eV     1   --> A_1  L_1       
     e(  3 -  4) =    -37.66099  eV     2   --> E    L_3       
     e(  5 -  5) =    -16.87513  eV     1   --> A_1  L_1       
     e(  6 -  6) =    -15.58676  eV     1   --> A_1  L_1       
     e(  7 -  7) =     -8.40736  eV     1   --> A_1  L_1       
     e(  8 -  9) =     -5.42757  eV     2   --> E    L_3       
     e( 10 - 10) =     -4.56669  eV     1   --> A_1  L_1       
     e( 11 - 12) =     -4.32410  eV     2   --> E    L_3       
     e( 13 - 13) =     -2.82315  eV     1   --> A_1  L_1       
     e( 14 - 15) =     -0.07459  eV     2   --> E    L_3       
     e( 16 - 17) =      0.15258  eV     2   --> E    L_3       

 **************************************************************************

 **************************************************************************

                    xk=(   0.00000,   0.00000,   0.03002  )

     Band symmetry, C_3v (3m)   point group:

     e(  1 -  1) =    -63.74008  eV     1   --> A_1  L_1       
     e(  2 -  2) =    -37.86409  eV     1   --> A_1  L_1       
     e(  3 -  4) =    -37.66099  eV     2   --> E    L_3       
     e(  5 -  5) =    -16.87513  eV     1   --> A_1  L_1       
     e(  6 -  6) =    -15.58676  eV     1   --> A_1  L_1       
     e(  7 -  7) =     -8.40736  eV     1   --> A_1  L_1       
     e(  8 -  9) =     -5.42757  eV     2   --> E    L_3       
     e( 10 - 10) =     -4.56669  eV     1   --> A_1  L_1       
     e( 11 - 12) =     -4.32410  eV     2   --> E    L_3       
     e( 13 - 13) =     -2.82315  eV     1   --> A_1  L_1       
     e( 14 - 15) =     -0.07459  eV     2   --> E    L_3       
     e( 16 - 17) =      0.15258  eV     2   --> E    L_3       

 **************************************************************************

 **************************************************************************

                    xk=(   0.00000,   0.00000,   0.03503  )

     Band symmetry, C_3v (3m)   point group:

     e(  1 -  1) =    -63.74008  eV     1   --> A_1  L_1       
     e(  2 -  2) =    -37.86409  eV     1   --> A_1  L_1       
     e(  3 -  4) =    -37.66100  eV     2   --> E    L_3       
     e(  5 -  5) =    -16.87513  eV     1   --> A_1  L_1       
     e(  6 -  6) =    -15.58675  eV     1   --> A_1  L_1       
     e(  7 -  7) =     -8.40736  eV     1   --> A_1  L_1       
     e(  8 -  9) =     -5.42757  eV     2   --> E    L_3       
     e( 10 - 10) =     -4.56669  eV     1   --> A_1  L_1       
     e( 11 - 12) =     -4.32411  eV     2   --> E    L_3       
     e( 13 - 13) =     -2.82314  eV     1   --> A_1  L_1       
     e( 14 - 15) =     -0.07460  eV     2   --> E    L_3       
     e( 16 - 17) =      0.15258  eV     2   --> E    L_3       

 **************************************************************************

 **************************************************************************

                    xk=(   0.00000,   0.00000,   0.04003  )

     Band symmetry, C_3v (3m)   point group:

     e(  1 -  1) =    -63.74008  eV     1   --> A_1  L_1       
     e(  2 -  2) =    -37.86409  eV     1   --> A_1  L_1       
     e(  3 -  4) =    -37.66100  eV     2   --> E    L_3       
     e(  5 -  5) =    -16.87513  eV     1   --> A_1  L_1       
     e(  6 -  6) =    -15.58675  eV     1   --> A_1  L_1       
     e(  7 -  7) =     -8.40736  eV     1   --> A_1  L_1       
     e(  8 -  9) =     -5.42757  eV     2   --> E    L_3       
     e( 10 - 10) =     -4.56669  eV     1   --> A_1  L_1       
     e( 11 - 12) =     -4.32411  eV     2   --> E    L_3       
     e( 13 - 13) =     -2.82314  eV     1   --> A_1  L_1       
     e( 14 - 15) =     -0.07460  eV     2   --> E    L_3       
     e( 16 - 17) =      0.15258  eV     2   --> E    L_3       

 **************************************************************************

 **************************************************************************

                    xk=(   0.00000,   0.00000,   0.04504  )

     Band symmetry, C_3v (3m)   point group:

     e(  1 -  1) =    -63.74008  eV     1   --> A_1  L_1       
     e(  2 -  2) =    -37.86411  eV     1   --> A_1  L_1       
     e(  3 -  4) =    -37.66099  eV     2   --> E    L_3       
     e(  5 -  5) =    -16.87513  eV     1   --> A_1  L_1       
     e(  6 -  6) =    -15.58675  eV     1   --> A_1  L_1       
     e(  7 -  7) =     -8.40736  eV     1   --> A_1  L_1       
     e(  8 -  9) =     -5.42757  eV     2   --> E    L_3       
     e( 10 - 10) =     -4.56669  eV     1   --> A_1  L_1       
     e( 11 - 12) =     -4.32410  eV     2   --> E    L_3       
     e( 13 - 13) =     -2.82316  eV     1   --> A_1  L_1       
     e( 14 - 15) =     -0.07458  eV     2   --> E    L_3       
     e( 16 - 17) =      0.15258  eV     2   --> E    L_3       

 **************************************************************************

 **************************************************************************

                    xk=(   0.00000,   0.00000,   0.05004  )

     point group D_3h (-62m)
     there are  6 classes
     the character table:

       E     2C3   3C2   s_h   2S3   3s_v 
A'_1   1.00  1.00  1.00  1.00  1.00  1.00
A'_2   1.00  1.00 -1.00  1.00  1.00 -1.00
E'     2.00 -1.00  0.00  2.00 -1.00  0.00
A''1   1.00  1.00  1.00 -1.00 -1.00 -1.00
A''2   1.00  1.00 -1.00 -1.00 -1.00  1.00
E''    2.00 -1.00  0.00 -2.00  1.00  0.00

     the symmetry operations in each class and the name of the first element:

     E        1
                                                                 
     2C3      3    4
                                                                 
     3C2      2    6    5
                                                                 
     s_h      7
                                                                 
     2S3      9   10
                                                                 
     3s_v     8   11   12
                                                                 

     Band symmetry, D_3h (-62m) point group:

     e(  1 -  1) =    -63.74008  eV     1   --> A'_1           
     e(  2 -  2) =    -37.86405  eV     1   --> A''2           
     e(  3 -  4) =    -37.66097  eV     2   --> E'             
     e(  5 -  5) =    -16.87513  eV     1   --> A'_1           
     e(  6 -  6) =    -15.58675  eV     1   --> A''2           
     e(  7 -  7) =     -8.40735  eV     1   --> A'_1           
     e(  8 -  9) =     -5.42756  eV     2   --> E'             
     e( 10 - 10) =     -4.56668  eV     1   --> A''2           
     e( 11 - 12) =     -4.32408  eV     2   --> E''            
     e( 13 - 13) =     -2.82313  eV     1   --> A'_1           
     e( 14 - 15) =     -0.07457  eV     2   --> E''            
     e( 16 - 17) =      0.15259  eV     2   --> E'             

 **************************************************************************
 
     BANDS        :  0m43.96s CPU     1m 4.22s WALL

 
   This run was terminated on:  16:57:26   8Jul2015            

=------------------------------------------------------------------------------=
   JOB DONE.
=------------------------------------------------------------------------------=
Application 13851311 resources: utime ~1265s, stime ~266s, Rss ~69044, inblocks ~4916759, outblocks ~144443
