
     Program PWSCF v.5.1.2 starts on  8Jul2015 at 16:19: 2 

     This program is part of the open-source Quantum ESPRESSO suite
     for quantum simulation of materials; please cite
         "P. Giannozzi et al., J. Phys.:Condens. Matter 21 395502 (2009);
          URL http://www.quantum-espresso.org", 
     in publications or presentations arising from this work. More details at
     http://www.quantum-espresso.org/quote

     Parallel version (MPI & OpenMP), running on      24 processor cores
     Number of MPI processes:                24
     Threads/MPI process:                     1
     R & G space division:  proc/nbgrp/npool/nimage =      24
     Waiting for input...
     Reading input from standard input

     Current dimensions of program PWSCF are:
     Max number of different atomic species (ntypx) = 10
     Max number of k-points (npk) =  40000
     Max angular momentum in pseudopotentials (lmaxx) =  3
               file Mo.pbe-spn-kjpaw_psl.0.2.UPF: wavefunction(s)  4D renormalized
               file S.pbe-n-kjpaw_psl.0.1.UPF: wavefunction(s)  3P renormalized

     Subspace diagonalization in iterative solution of the eigenvalue problem:
     scalapack distributed-memory algorithm (size of sub-group:  3*  3 procs)

 
     Parallelization info
     --------------------
     sticks:   dense  smooth     PW     G-vecs:    dense   smooth      PW
     Min          47      16      5                12773     2678     455
     Max          48      17      6                12808     2721     496
     Sum        1135     397    121               306881    64743   11139
 


     bravais-lattice index     =            4
     lattice parameter (alat)  =       6.0350  a.u.
     unit-cell volume          =    1901.9649 (a.u.)^3
     number of atoms/cell      =            3
     number of atomic types    =            2
     number of electrons       =        26.00
     number of Kohn-Sham states=           17
     kinetic-energy cutoff     =      40.0000  Ry
     charge density cutoff     =     450.0000  Ry
     convergence threshold     =      1.0E-10
     mixing beta               =       0.3000
     number of iterations used =            8  plain     mixing
     Exchange-correlation      =  SLA  PW   PBX  PBC ( 1  4  3  4 0 0)
     nstep                     =           50


     celldm(1)=   6.035000  celldm(2)=   0.000000  celldm(3)=   9.991715
     celldm(4)=   0.000000  celldm(5)=   0.000000  celldm(6)=   0.000000

     crystal axes: (cart. coord. in units of alat)
               a(1) = (   1.000000   0.000000   0.000000 )  
               a(2) = (  -0.500000   0.866025   0.000000 )  
               a(3) = (   0.000000   0.000000   9.991715 )  

     reciprocal axes: (cart. coord. in units 2 pi/alat)
               b(1) = (  1.000000  0.577350  0.000000 )  
               b(2) = (  0.000000  1.154701  0.000000 )  
               b(3) = (  0.000000  0.000000  0.100083 )  


     PseudoPot. # 1 for Mo read from file:
     /global/homes/c/chunjing/espresso/pseudo/Mo.pbe-spn-kjpaw_psl.0.2.UPF
     MD5 check sum: 4d55e26c65023fa7f2775461318ed04e
     Pseudo is Projector augmented-wave + core cor, Zval = 14.0
     Generated using "atomic" code by A. Dal Corso  v.5.0.2 svn rev. 9415
     Shape of augmentation charge: PSQ
     Using radial grid of 1229 points,  6 beta functions with: 
                l(1) =   0
                l(2) =   0
                l(3) =   1
                l(4) =   1
                l(5) =   2
                l(6) =   2
     Q(r) pseudized with 0 coefficients 


     PseudoPot. # 2 for  S read from file:
     /global/homes/c/chunjing/espresso/pseudo/S.pbe-n-kjpaw_psl.0.1.UPF
     MD5 check sum: 4d0aa7498161b95d6b336a838fdb998f
     Pseudo is Projector augmented-wave + core cor, Zval =  6.0
     Generated using "atomic" code by A. Dal Corso  v.5.0.2 svn rev. 9415
     Shape of augmentation charge: PSQ
     Using radial grid of 1151 points,  4 beta functions with: 
                l(1) =   0
                l(2) =   0
                l(3) =   1
                l(4) =   1
     Q(r) pseudized with 0 coefficients 


     atomic species   valence    mass     pseudopotential
        Mo            14.00     1.00000     Mo( 1.00)
        S              6.00     1.00000      S( 1.00)

     12 Sym. Ops. (no inversion) found



   Cartesian axes

     site n.     atom                  positions (alat units)
         1           Mo  tau(   1) = (   0.0000000   0.0000000   0.0000000  )
         2           S   tau(   2) = (  -0.0000005   0.5773506   9.5021210  )
         3           S   tau(   3) = (  -0.0000005   0.5773506   0.4895940  )

     number of k points=    27  Methfessel-Paxton smearing, width (Ry)=  0.0500
                       cart. coord. in units 2pi/alat
        k(    1) = (   0.0000000   0.0000000   0.0000000), wk =   0.0088889
        k(    2) = (   0.0000000   0.0769800   0.0000000), wk =   0.0533333
        k(    3) = (   0.0000000   0.1539601   0.0000000), wk =   0.0533333
        k(    4) = (   0.0000000   0.2309401   0.0000000), wk =   0.0533333
        k(    5) = (   0.0000000   0.3079201   0.0000000), wk =   0.0533333
        k(    6) = (   0.0000000   0.3849002   0.0000000), wk =   0.0533333
        k(    7) = (   0.0000000   0.4618802   0.0000000), wk =   0.0533333
        k(    8) = (   0.0000000   0.5388603   0.0000000), wk =   0.0533333
        k(    9) = (   0.0666667   0.1154701   0.0000000), wk =   0.0533333
        k(   10) = (   0.0666667   0.1924501   0.0000000), wk =   0.1066667
        k(   11) = (   0.0666667   0.2694301   0.0000000), wk =   0.1066667
        k(   12) = (   0.0666667   0.3464102   0.0000000), wk =   0.1066667
        k(   13) = (   0.0666667   0.4233902   0.0000000), wk =   0.1066667
        k(   14) = (   0.0666667   0.5003702   0.0000000), wk =   0.1066667
        k(   15) = (   0.0666667   0.5773503   0.0000000), wk =   0.0533333
        k(   16) = (   0.1333333   0.2309401   0.0000000), wk =   0.0533333
        k(   17) = (   0.1333333   0.3079201   0.0000000), wk =   0.1066667
        k(   18) = (   0.1333333   0.3849002   0.0000000), wk =   0.1066667
        k(   19) = (   0.1333333   0.4618802   0.0000000), wk =   0.1066667
        k(   20) = (   0.1333333   0.5388603   0.0000000), wk =   0.1066667
        k(   21) = (   0.2000000   0.3464102   0.0000000), wk =   0.0533333
        k(   22) = (   0.2000000   0.4233902   0.0000000), wk =   0.1066667
        k(   23) = (   0.2000000   0.5003702   0.0000000), wk =   0.1066667
        k(   24) = (   0.2000000   0.5773503   0.0000000), wk =   0.0533333
        k(   25) = (   0.2666667   0.4618802   0.0000000), wk =   0.0533333
        k(   26) = (   0.2666667   0.5388603   0.0000000), wk =   0.1066667
        k(   27) = (   0.3333333   0.5773503   0.0000000), wk =   0.0177778

     Dense  grid:   306881 G-vectors     FFT dimensions: (  45,  45, 432)

     Smooth grid:    64743 G-vectors     FFT dimensions: (  25,  25, 243)

     Largest allocated arrays     est. size (Mb)     dimensions
        Kohn-Sham Wavefunctions         0.10 Mb     (     374,   17)
        NL pseudopotentials             0.19 Mb     (     374,   34)
        Each V/rho on FFT grid          0.56 Mb     (   36450)
        Each G-vector array             0.10 Mb     (   12777)
        G-vector shells                 0.05 Mb     (    6042)
     Largest temporary arrays     est. size (Mb)     dimensions
        Auxiliary wavefunctions         0.39 Mb     (     374,   68)
        Each subspace H/S matrix        0.01 Mb     (      22,   22)
        Each <psi_i|beta_j> matrix      0.01 Mb     (      34,   17)
        Arrays for rho mixing           4.45 Mb     (   36450,    8)

     Initial potential from superposition of free atoms
     Check: negative starting charge=   -0.000760

     starting charge   25.99864, renormalised to   26.00000

     negative rho (up, down):  7.598E-04 0.000E+00
     Starting wfc are   21 randomized atomic wfcs
     Checking if some PAW data can be deallocated... 

     total cpu time spent up to now is        2.7 secs

     per-process dynamical memory:    23.2 Mb

     Self-consistent Calculation

     iteration #  1     ecut=    40.00 Ry     beta=0.30
     Davidson diagonalization with overlap
     ethr =  1.00E-02,  avg # of iterations =  3.0

     negative rho (up, down):  7.295E-04 0.000E+00

     total cpu time spent up to now is        4.1 secs

     total energy              =    -496.54766942 Ry
     Harris-Foulkes estimate   =    -496.77828023 Ry
     estimated scf accuracy    <       0.52270727 Ry

     iteration #  2     ecut=    40.00 Ry     beta=0.30
     Davidson diagonalization with overlap
     ethr =  2.01E-03,  avg # of iterations =  2.3

     negative rho (up, down):  7.452E-04 0.000E+00

     total cpu time spent up to now is        5.1 secs

     total energy              =    -496.63535491 Ry
     Harris-Foulkes estimate   =    -496.73424725 Ry
     estimated scf accuracy    <       0.34961672 Ry

     iteration #  3     ecut=    40.00 Ry     beta=0.30
     Davidson diagonalization with overlap
     ethr =  1.34E-03,  avg # of iterations =  1.8

     negative rho (up, down):  7.806E-04 0.000E+00

     total cpu time spent up to now is        6.0 secs

     total energy              =    -496.67749346 Ry
     Harris-Foulkes estimate   =    -496.68513111 Ry
     estimated scf accuracy    <       0.02187781 Ry

     iteration #  4     ecut=    40.00 Ry     beta=0.30
     Davidson diagonalization with overlap
     ethr =  8.41E-05,  avg # of iterations =  3.0

     negative rho (up, down):  7.714E-04 0.000E+00

     total cpu time spent up to now is        7.2 secs

     total energy              =    -496.68231512 Ry
     Harris-Foulkes estimate   =    -496.68397490 Ry
     estimated scf accuracy    <       0.00466611 Ry

     iteration #  5     ecut=    40.00 Ry     beta=0.30
     Davidson diagonalization with overlap
     ethr =  1.79E-05,  avg # of iterations =  2.0

     negative rho (up, down):  8.327E-04 0.000E+00

     total cpu time spent up to now is        8.3 secs

     total energy              =    -496.68301318 Ry
     Harris-Foulkes estimate   =    -496.68327781 Ry
     estimated scf accuracy    <       0.00159033 Ry

     iteration #  6     ecut=    40.00 Ry     beta=0.30
     Davidson diagonalization with overlap
     ethr =  6.12E-06,  avg # of iterations =  2.0

     negative rho (up, down):  8.102E-04 0.000E+00

     total cpu time spent up to now is        9.3 secs

     total energy              =    -496.68311253 Ry
     Harris-Foulkes estimate   =    -496.68312065 Ry
     estimated scf accuracy    <       0.00002054 Ry

     iteration #  7     ecut=    40.00 Ry     beta=0.30
     Davidson diagonalization with overlap
     ethr =  7.90E-08,  avg # of iterations =  3.0

     negative rho (up, down):  8.075E-04 0.000E+00

     total cpu time spent up to now is       10.6 secs

     total energy              =    -496.68311933 Ry
     Harris-Foulkes estimate   =    -496.68312787 Ry
     estimated scf accuracy    <       0.00001511 Ry

     iteration #  8     ecut=    40.00 Ry     beta=0.30
     Davidson diagonalization with overlap
     ethr =  5.81E-08,  avg # of iterations =  3.0

     negative rho (up, down):  8.012E-04 0.000E+00

     total cpu time spent up to now is       11.8 secs

     total energy              =    -496.68312241 Ry
     Harris-Foulkes estimate   =    -496.68312733 Ry
     estimated scf accuracy    <       0.00000993 Ry

     iteration #  9     ecut=    40.00 Ry     beta=0.30
     Davidson diagonalization with overlap
     ethr =  3.82E-08,  avg # of iterations =  2.0

     negative rho (up, down):  7.990E-04 0.000E+00

     total cpu time spent up to now is       12.8 secs

     total energy              =    -496.68312409 Ry
     Harris-Foulkes estimate   =    -496.68312410 Ry
     estimated scf accuracy    <       0.00000017 Ry

     iteration # 10     ecut=    40.00 Ry     beta=0.30
     Davidson diagonalization with overlap
     ethr =  6.63E-10,  avg # of iterations =  3.0

     negative rho (up, down):  7.980E-04 0.000E+00

     total cpu time spent up to now is       14.0 secs

     total energy              =    -496.68312420 Ry
     Harris-Foulkes estimate   =    -496.68312420 Ry
     estimated scf accuracy    <       0.00000006 Ry

     iteration # 11     ecut=    40.00 Ry     beta=0.30
     Davidson diagonalization with overlap
     ethr =  2.40E-10,  avg # of iterations =  1.3

     negative rho (up, down):  7.975E-04 0.000E+00

     total cpu time spent up to now is       14.9 secs

     total energy              =    -496.68312420 Ry
     Harris-Foulkes estimate   =    -496.68312420 Ry
     estimated scf accuracy    <       0.00000002 Ry

     iteration # 12     ecut=    40.00 Ry     beta=0.30
     Davidson diagonalization with overlap
     ethr =  9.29E-11,  avg # of iterations =  2.0

     negative rho (up, down):  7.974E-04 0.000E+00

     total cpu time spent up to now is       15.9 secs

     total energy              =    -496.68312421 Ry
     Harris-Foulkes estimate   =    -496.68312420 Ry
     estimated scf accuracy    <          2.5E-09 Ry

     iteration # 13     ecut=    40.00 Ry     beta=0.30
     Davidson diagonalization with overlap
     ethr =  9.62E-12,  avg # of iterations =  2.1

     negative rho (up, down):  7.976E-04 0.000E+00

     total cpu time spent up to now is       16.9 secs

     End of self-consistent calculation

          k = 0.0000 0.0000 0.0000 (  7993 PWs)   bands (ev):

   -63.7408 -37.8510 -37.6689 -37.6689 -16.8874 -15.5993  -8.4146  -5.4388
    -5.4388  -4.5764  -4.3300  -4.3300  -2.8225  -0.0829  -0.0829   0.1397
     0.1397

          k = 0.0000 0.0770 0.0000 (  8047 PWs)   bands (ev):

   -63.7392 -37.8478 -37.6850 -37.6726 -16.8226 -15.5724  -8.3395  -5.5871
    -5.3705  -4.9453  -4.4360  -4.0602  -2.8553  -0.1793  -0.0439   0.0317
     0.0663

          k = 0.0000 0.1540 0.0000 (  8061 PWs)   bands (ev):

   -63.7349 -37.8390 -37.7297 -37.6828 -16.6349 -15.4942  -8.1351  -5.9630
    -5.4496  -5.1746  -4.7063  -3.8962  -2.9895  -0.3999  -0.2956  -0.1208
     0.3188

          k = 0.0000 0.2309 0.0000 (  8091 PWs)   bands (ev):

   -63.7284 -37.8260 -37.7951 -37.6979 -16.3438 -15.3733  -7.8848  -6.4037
    -5.9733  -5.0476  -4.8794  -3.9838  -3.2755  -0.6365  -0.3474  -0.1890
     0.6647

          k = 0.0000 0.3079 0.0000 (  8100 PWs)   bands (ev):

   -63.7210 -37.8692 -37.8110 -37.7151 -15.9831 -15.2248  -7.8017  -6.6845
    -6.4946  -5.3831  -4.5342  -4.2180  -3.6199  -0.6493  -0.5387   0.1399
     0.9761

          k = 0.0000 0.3849 0.0000 (  8130 PWs)   bands (ev):

   -63.7139 -37.9394 -37.7966 -37.7314 -15.6036 -15.0712  -8.0320  -6.9738
    -6.7332  -5.6647  -4.4500  -4.2055  -3.7864  -0.6442  -0.5061   0.5380
     1.2066

          k = 0.0000 0.4619 0.0000 (  8140 PWs)   bands (ev):

   -63.7083 -37.9938 -37.7853 -37.7442 -15.2751 -14.9417  -8.3407  -7.3487
    -6.7934  -5.8646  -4.6103  -3.9587  -3.6757  -0.6591  -0.3033   0.8589
     1.3490

          k = 0.0000 0.5389 0.0000 (  8148 PWs)   bands (ev):

   -63.7053 -38.0233 -37.7791 -37.7511 -15.0798 -14.8667  -8.5369  -7.5558
    -6.8717  -5.9680  -4.6880  -3.8315  -3.4943  -0.6347  -0.1410   1.0238
     1.4147

          k = 0.0667 0.1155 0.0000 (  8054 PWs)   bands (ev):

   -63.7363 -37.8419 -37.7148 -37.6801 -16.6964 -15.5198  -8.1989  -5.8463
    -5.2933  -5.2412  -4.6732  -3.8776  -2.9389  -0.3070  -0.3029  -0.0713
     0.2518

          k = 0.0667 0.1925 0.0000 (  8086 PWs)   bands (ev):

   -63.7309 -37.8309 -37.7685 -37.6941 -16.4567 -15.4200  -7.9634  -6.2469
    -5.7316  -5.0662  -5.0091  -3.8139  -3.1527  -0.5924  -0.3491  -0.2741
     0.5997

          k = 0.0667 0.2694 0.0000 (  8102 PWs)   bands (ev):

   -63.7239 -37.8363 -37.8169 -37.7121 -16.1299 -15.2844  -7.7738  -6.5978
    -6.2264  -5.4400  -4.7306  -3.9613  -3.4746  -0.7462  -0.4272  -0.1523
     0.9463

          k = 0.0667 0.3464 0.0000 (  8094 PWs)   bands (ev):

   -63.7167 -37.9064 -37.8022 -37.7307 -15.7577 -15.1315  -7.8647  -6.7468
    -6.7028  -5.7084  -4.5012  -4.2180  -3.6933  -0.7583  -0.4558   0.2111
     1.2102

          k = 0.0667 0.4234 0.0000 (  8110 PWs)   bands (ev):

   -63.7103 -37.9671 -37.7894 -37.7469 -15.3997 -14.9872  -8.1525  -7.2069
    -6.7246  -5.8747  -4.4631  -4.3540  -3.6283  -0.6860  -0.3645   0.6016
     1.3472

          k = 0.0667 0.5004 0.0000 (  8126 PWs)   bands (ev):

   -63.7060 -38.0079 -37.7806 -37.7578 -15.1328 -14.8822  -8.4024  -7.5218
    -6.8123  -5.9627  -4.6292  -4.2226  -3.4311  -0.6240  -0.1932   0.9274
     1.3418

          k = 0.0667 0.5774 0.0000 (  8130 PWs)   bands (ev):

   -63.7045 -38.0223 -37.7775 -37.7617 -15.0326 -14.8435  -8.4985  -7.6337
    -6.8625  -5.9899  -4.6873  -4.1672  -3.3259  -0.6117  -0.0896   1.1099
     1.2608

          k = 0.1333 0.2309 0.0000 (  8096 PWs)   bands (ev):

   -63.7250 -37.8222 -37.8190 -37.7135 -16.1808 -15.3048  -7.7676  -6.5480
    -6.0368  -5.6092  -4.8251  -3.7814  -3.4128  -0.7929  -0.3876  -0.3334
     0.9721

          k = 0.1333 0.3079 0.0000 (  8099 PWs)   bands (ev):

   -63.7182 -37.8819 -37.8053 -37.7371 -15.8401 -15.1627  -7.7414  -6.6627
    -6.5170  -5.9357  -4.7593  -3.9338  -3.6193  -0.8821  -0.3880  -0.1252
     1.2796

          k = 0.1333 0.3849 0.0000 (  8114 PWs)   bands (ev):

   -63.7117 -37.9381 -37.7922 -37.7600 -15.4840 -15.0151  -7.9362  -7.0727
    -6.6223  -6.0267  -4.8387  -4.2077  -3.5997  -0.7727  -0.3414   0.2082
     1.4537

          k = 0.1333 0.4619 0.0000 (  8134 PWs)   bands (ev):

   -63.7066 -37.9816 -37.7818 -37.7781 -15.1788 -14.8899  -8.1581  -7.5085
    -6.6822  -6.0202  -4.8592  -4.4867  -3.4192  -0.6228  -0.2210   0.5473
     1.4789

          k = 0.1333 0.5389 0.0000 (  8164 PWs)   bands (ev):

   -63.7039 -38.0052 -37.7880 -37.7762 -14.9990 -14.8170  -8.2916  -7.7452
    -6.7879  -5.9858  -4.8256  -4.6664  -3.2324  -0.6429   0.0039   0.7896
     1.4105

          k = 0.2000 0.3464 0.0000 (  8122 PWs)   bands (ev):

   -63.7122 -37.9243 -37.7931 -37.7683 -15.5138 -15.0244  -7.8364  -7.0031
    -6.5604  -6.1224  -5.0608  -4.0788  -3.5993  -0.8164  -0.3238   0.0255
     1.5110

          k = 0.2000 0.4234 0.0000 (  8151 PWs)   bands (ev):

   -63.7069 -37.9578 -37.7987 -37.7825 -15.2055 -14.8925  -7.9497  -7.5007
    -6.5042  -6.0868  -5.3957  -4.3538  -3.4459  -0.6449  -0.2178   0.2421
     1.6296

          k = 0.2000 0.5004 0.0000 (  8173 PWs)   bands (ev):

   -63.7034 -37.9790 -37.8208 -37.7753 -14.9806 -14.7957  -8.0051  -7.8429
    -6.6370  -5.9723  -5.5333  -4.6340  -3.2125  -0.7305   0.1069   0.4166
     1.6713

          k = 0.2000 0.5774 0.0000 (  8208 PWs)   bands (ev):

   -63.7021 -37.9862 -37.8290 -37.7728 -14.8974 -14.7598  -8.0138  -7.9639
    -6.7375  -5.9040  -5.5522  -4.7619  -3.0821  -0.8294   0.2952   0.4815
     1.6781

          k = 0.2667 0.4619 0.0000 (  8198 PWs)   bands (ev):

   -63.7032 -37.9636 -37.8387 -37.7750 -14.9749 -14.7874  -7.8813  -7.8550
    -6.4595  -5.9671  -5.9567  -4.6161  -3.2120  -0.7742   0.1481   0.2708
     1.7831

          k = 0.2667 0.5389 0.0000 (  8206 PWs)   bands (ev):

   -63.7012 -37.9600 -37.8673 -37.7709 -14.8433 -14.7257  -8.0970  -7.6874
    -6.6610  -6.1783  -5.8076  -4.8553  -2.9741  -1.0132   0.2760   0.4932
     1.8873

          k = 0.3333 0.5774 0.0000 (  8238 PWs)   bands (ev):

   -63.7004 -37.9396 -37.8974 -37.7694 -14.7944 -14.6997  -8.1905  -7.3871
    -6.8703  -6.3980  -5.6969  -4.9856  -2.8429  -1.1762   0.2178   0.6631
     1.9813

     the Fermi energy is    -1.2265 ev

!    total energy              =    -496.68312421 Ry
     Harris-Foulkes estimate   =    -496.68312421 Ry
     estimated scf accuracy    <          8.2E-11 Ry

     total all-electron energy =     -9695.014510 Ry

     The total energy is the sum of the following terms:

     one-electron contribution =   -2090.79446684 Ry
     hartree contribution      =    1046.29309908 Ry
     xc contribution           =     -42.55513053 Ry
     ewald contribution        =     897.31552931 Ry
     one-center paw contrib.   =    -306.94980874 Ry
     smearing contrib. (-TS)   =       0.00765350 Ry

     convergence has been achieved in  13 iterations

     Forces acting on atoms (Ry/au):


     negative rho (up, down):  7.976E-04 0.000E+00
     atom    1 type  1   force =     0.00000000    0.00000000    0.00000000
     atom    2 type  2   force =     0.00000000    0.00000000   -0.00016067
     atom    3 type  2   force =     0.00000000    0.00000000    0.00016067

     Total force =     0.000227     Total SCF correction =     0.000024
     SCF correction compared to forces is large: reduce conv_thr to get better values

     BFGS Geometry Optimization

     bfgs converged in   1 scf cycles and   0 bfgs steps
     (criteria: energy <  1.0E-04, force <  1.0E-03)

     End of BFGS Geometry Optimization

     Final energy   =    -496.6831242116 Ry
Begin final coordinates

ATOMIC_POSITIONS (crystal)
Mo       0.000000000   0.000000000   0.000000000
S        0.333333000   0.666667000   0.951000000
S        0.333333000   0.666667000   0.049000000
End final coordinates



     Writing output data file MoS2_a6035,    outdir=.save
 
     init_run     :      1.45s CPU      1.72s WALL (       1 calls)
     electrons    :     12.88s CPU     14.83s WALL (       1 calls)
     forces       :      0.34s CPU      0.35s WALL (       1 calls)

     Called by init_run:
     wfcinit      :      0.31s CPU      0.37s WALL (       1 calls)
     potinit      :      0.20s CPU      0.21s WALL (       1 calls)

     Called by electrons:
     c_bands      :      9.00s CPU      9.95s WALL (      13 calls)
     sum_band     :      2.10s CPU      2.17s WALL (      13 calls)
     v_of_rho     :      0.33s CPU      0.35s WALL (      14 calls)
     newd         :      0.68s CPU      0.71s WALL (      14 calls)
     mix_rho      :      0.05s CPU      0.04s WALL (      13 calls)

     Called by c_bands:
     init_us_2    :      0.06s CPU      0.08s WALL (     756 calls)
     cegterg      :      8.28s CPU      8.53s WALL (     351 calls)

     Called by *egterg:
     h_psi        :      5.23s CPU      5.36s WALL (    1202 calls)
     s_psi        :      0.10s CPU      0.13s WALL (    1202 calls)
     g_psi        :      0.03s CPU      0.03s WALL (     824 calls)
     cdiaghg      :      2.20s CPU      2.25s WALL (    1175 calls)

     Called by h_psi:
     add_vuspsi   :      0.19s CPU      0.14s WALL (    1202 calls)

     General routines
     calbec       :      0.32s CPU      0.29s WALL (    1580 calls)
     fft          :      0.23s CPU      0.26s WALL (     231 calls)
     ffts         :      0.00s CPU      0.01s WALL (      27 calls)
     fftw         :      4.98s CPU      5.24s WALL (   38177 calls)
     interpolate  :      0.04s CPU      0.05s WALL (      27 calls)
     davcio       :      0.01s CPU      0.11s WALL (      27 calls)
 
     Parallel routines
     fft_scatter  :      2.56s CPU      2.81s WALL (   38435 calls)

     PAW routines
     PAW_pot      :      0.75s CPU      0.86s WALL (      14 calls)
     PAW_symme    :      0.01s CPU      0.00s WALL (      27 calls)
 
     PWSCF        :    15.81s CPU        24.90s WALL

 
   This run was terminated on:  16:19:27   8Jul2015            

=------------------------------------------------------------------------------=
   JOB DONE.
=------------------------------------------------------------------------------=
Application 13850006 resources: utime ~506s, stime ~11s, Rss ~45140, inblocks ~402402, outblocks ~675074
