
     Program PWSCF v.5.1.2 starts on  8Jul2015 at 14: 8: 4 

     This program is part of the open-source Quantum ESPRESSO suite
     for quantum simulation of materials; please cite
         "P. Giannozzi et al., J. Phys.:Condens. Matter 21 395502 (2009);
          URL http://www.quantum-espresso.org", 
     in publications or presentations arising from this work. More details at
     http://www.quantum-espresso.org/quote

     Parallel version (MPI & OpenMP), running on      24 processor cores
     Number of MPI processes:                24
     Threads/MPI process:                     1
     R & G space division:  proc/nbgrp/npool/nimage =      24
     Waiting for input...
     Reading input from standard input

     Current dimensions of program PWSCF are:
     Max number of different atomic species (ntypx) = 10
     Max number of k-points (npk) =  40000
     Max angular momentum in pseudopotentials (lmaxx) =  3
               file Mo.pbe-spn-kjpaw_psl.0.2.UPF: wavefunction(s)  4D renormalized
               file S.pbe-n-kjpaw_psl.0.1.UPF: wavefunction(s)  3P renormalized

     Subspace diagonalization in iterative solution of the eigenvalue problem:
     scalapack distributed-memory algorithm (size of sub-group:  3*  3 procs)

 
     Parallelization info
     --------------------
     sticks:   dense  smooth     PW     G-vecs:    dense   smooth      PW
     Min          47      16      5                12753     2676     455
     Max          48      17      6                12784     2721     496
     Sum        1135     397    121               306413    64671   11139
 


     bravais-lattice index     =            4
     lattice parameter (alat)  =       6.0300  a.u.
     unit-cell volume          =    1898.8146 (a.u.)^3
     number of atoms/cell      =            3
     number of atomic types    =            2
     number of electrons       =        26.00
     number of Kohn-Sham states=           17
     kinetic-energy cutoff     =      40.0000  Ry
     charge density cutoff     =     450.0000  Ry
     convergence threshold     =      1.0E-10
     mixing beta               =       0.3000
     number of iterations used =            8  plain     mixing
     Exchange-correlation      =  SLA  PW   PBX  PBC ( 1  4  3  4 0 0)
     nstep                     =           50


     celldm(1)=   6.030000  celldm(2)=   0.000000  celldm(3)=  10.000000
     celldm(4)=   0.000000  celldm(5)=   0.000000  celldm(6)=   0.000000

     crystal axes: (cart. coord. in units of alat)
               a(1) = (   1.000000   0.000000   0.000000 )  
               a(2) = (  -0.500000   0.866025   0.000000 )  
               a(3) = (   0.000000   0.000000  10.000000 )  

     reciprocal axes: (cart. coord. in units 2 pi/alat)
               b(1) = (  1.000000  0.577350  0.000000 )  
               b(2) = (  0.000000  1.154701  0.000000 )  
               b(3) = (  0.000000  0.000000  0.100000 )  


     PseudoPot. # 1 for Mo read from file:
     /global/homes/c/chunjing/espresso/pseudo/Mo.pbe-spn-kjpaw_psl.0.2.UPF
     MD5 check sum: 4d55e26c65023fa7f2775461318ed04e
     Pseudo is Projector augmented-wave + core cor, Zval = 14.0
     Generated using "atomic" code by A. Dal Corso  v.5.0.2 svn rev. 9415
     Shape of augmentation charge: PSQ
     Using radial grid of 1229 points,  6 beta functions with: 
                l(1) =   0
                l(2) =   0
                l(3) =   1
                l(4) =   1
                l(5) =   2
                l(6) =   2
     Q(r) pseudized with 0 coefficients 


     PseudoPot. # 2 for  S read from file:
     /global/homes/c/chunjing/espresso/pseudo/S.pbe-n-kjpaw_psl.0.1.UPF
     MD5 check sum: 4d0aa7498161b95d6b336a838fdb998f
     Pseudo is Projector augmented-wave + core cor, Zval =  6.0
     Generated using "atomic" code by A. Dal Corso  v.5.0.2 svn rev. 9415
     Shape of augmentation charge: PSQ
     Using radial grid of 1151 points,  4 beta functions with: 
                l(1) =   0
                l(2) =   0
                l(3) =   1
                l(4) =   1
     Q(r) pseudized with 0 coefficients 


     atomic species   valence    mass     pseudopotential
        Mo            14.00     1.00000     Mo( 1.00)
        S              6.00     1.00000      S( 1.00)

     12 Sym. Ops. (no inversion) found



   Cartesian axes

     site n.     atom                  positions (alat units)
         1           Mo  tau(   1) = (   0.0000000   0.0000000   0.0000000  )
         2           S   tau(   2) = (  -0.0000005   0.5773506   9.4366900  )
         3           S   tau(   3) = (  -0.0000005   0.5773506   0.5633100  )

     number of k points=    27  Methfessel-Paxton smearing, width (Ry)=  0.0500
                       cart. coord. in units 2pi/alat
        k(    1) = (   0.0000000   0.0000000   0.0000000), wk =   0.0088889
        k(    2) = (   0.0000000   0.0769800   0.0000000), wk =   0.0533333
        k(    3) = (   0.0000000   0.1539601   0.0000000), wk =   0.0533333
        k(    4) = (   0.0000000   0.2309401   0.0000000), wk =   0.0533333
        k(    5) = (   0.0000000   0.3079201   0.0000000), wk =   0.0533333
        k(    6) = (   0.0000000   0.3849002   0.0000000), wk =   0.0533333
        k(    7) = (   0.0000000   0.4618802   0.0000000), wk =   0.0533333
        k(    8) = (   0.0000000   0.5388603   0.0000000), wk =   0.0533333
        k(    9) = (   0.0666667   0.1154701   0.0000000), wk =   0.0533333
        k(   10) = (   0.0666667   0.1924501   0.0000000), wk =   0.1066667
        k(   11) = (   0.0666667   0.2694301   0.0000000), wk =   0.1066667
        k(   12) = (   0.0666667   0.3464102   0.0000000), wk =   0.1066667
        k(   13) = (   0.0666667   0.4233902   0.0000000), wk =   0.1066667
        k(   14) = (   0.0666667   0.5003702   0.0000000), wk =   0.1066667
        k(   15) = (   0.0666667   0.5773503   0.0000000), wk =   0.0533333
        k(   16) = (   0.1333333   0.2309401   0.0000000), wk =   0.0533333
        k(   17) = (   0.1333333   0.3079201   0.0000000), wk =   0.1066667
        k(   18) = (   0.1333333   0.3849002   0.0000000), wk =   0.1066667
        k(   19) = (   0.1333333   0.4618802   0.0000000), wk =   0.1066667
        k(   20) = (   0.1333333   0.5388603   0.0000000), wk =   0.1066667
        k(   21) = (   0.2000000   0.3464102   0.0000000), wk =   0.0533333
        k(   22) = (   0.2000000   0.4233902   0.0000000), wk =   0.1066667
        k(   23) = (   0.2000000   0.5003702   0.0000000), wk =   0.1066667
        k(   24) = (   0.2000000   0.5773503   0.0000000), wk =   0.0533333
        k(   25) = (   0.2666667   0.4618802   0.0000000), wk =   0.0533333
        k(   26) = (   0.2666667   0.5388603   0.0000000), wk =   0.1066667
        k(   27) = (   0.3333333   0.5773503   0.0000000), wk =   0.0177778

     Dense  grid:   306413 G-vectors     FFT dimensions: (  45,  45, 432)

     Smooth grid:    64671 G-vectors     FFT dimensions: (  25,  25, 243)

     Largest allocated arrays     est. size (Mb)     dimensions
        Kohn-Sham Wavefunctions         0.10 Mb     (     374,   17)
        NL pseudopotentials             0.19 Mb     (     374,   34)
        Each V/rho on FFT grid          0.56 Mb     (   36450)
        Each G-vector array             0.10 Mb     (   12757)
        G-vector shells                 0.03 Mb     (    4402)
     Largest temporary arrays     est. size (Mb)     dimensions
        Auxiliary wavefunctions         0.39 Mb     (     374,   68)
        Each subspace H/S matrix        0.01 Mb     (      22,   22)
        Each <psi_i|beta_j> matrix      0.01 Mb     (      34,   17)
        Arrays for rho mixing           4.45 Mb     (   36450,    8)

     Initial potential from superposition of free atoms
     Check: negative starting charge=   -0.000733

     starting charge   25.99864, renormalised to   26.00000

     negative rho (up, down):  7.331E-04 0.000E+00
     Starting wfc are   21 randomized atomic wfcs
     Checking if some PAW data can be deallocated... 

     total cpu time spent up to now is        5.5 secs

     per-process dynamical memory:    23.0 Mb

     Self-consistent Calculation

     iteration #  1     ecut=    40.00 Ry     beta=0.30
     Davidson diagonalization with overlap
     ethr =  1.00E-02,  avg # of iterations =  2.5

     negative rho (up, down):  7.020E-04 0.000E+00

     total cpu time spent up to now is        6.5 secs

     total energy              =    -496.39891606 Ry
     Harris-Foulkes estimate   =    -496.74393777 Ry
     estimated scf accuracy    <       0.75617308 Ry

     iteration #  2     ecut=    40.00 Ry     beta=0.30
     Davidson diagonalization with overlap
     ethr =  2.91E-03,  avg # of iterations =  2.3

     negative rho (up, down):  7.566E-04 0.000E+00

     total cpu time spent up to now is        7.5 secs

     total energy              =    -496.42960581 Ry
     Harris-Foulkes estimate   =    -496.79933063 Ry
     estimated scf accuracy    <       1.79158353 Ry

     iteration #  3     ecut=    40.00 Ry     beta=0.30
     Davidson diagonalization with overlap
     ethr =  2.91E-03,  avg # of iterations =  2.0

     negative rho (up, down):  7.934E-04 0.000E+00

     total cpu time spent up to now is        8.4 secs

     total energy              =    -496.61345756 Ry
     Harris-Foulkes estimate   =    -496.63198728 Ry
     estimated scf accuracy    <       0.04787975 Ry

     iteration #  4     ecut=    40.00 Ry     beta=0.30
     Davidson diagonalization with overlap
     ethr =  1.84E-04,  avg # of iterations =  2.6

     negative rho (up, down):  7.560E-04 0.000E+00

     total cpu time spent up to now is        9.4 secs

     total energy              =    -496.62426561 Ry
     Harris-Foulkes estimate   =    -496.62729048 Ry
     estimated scf accuracy    <       0.00647938 Ry

     iteration #  5     ecut=    40.00 Ry     beta=0.30
     Davidson diagonalization with overlap
     ethr =  2.49E-05,  avg # of iterations =  2.0

     negative rho (up, down):  7.866E-04 0.000E+00

     total cpu time spent up to now is       10.4 secs

     total energy              =    -496.62542255 Ry
     Harris-Foulkes estimate   =    -496.62589484 Ry
     estimated scf accuracy    <       0.00216676 Ry

     iteration #  6     ecut=    40.00 Ry     beta=0.30
     Davidson diagonalization with overlap
     ethr =  8.33E-06,  avg # of iterations =  2.0

     negative rho (up, down):  7.753E-04 0.000E+00

     total cpu time spent up to now is       11.3 secs

     total energy              =    -496.62556488 Ry
     Harris-Foulkes estimate   =    -496.62576355 Ry
     estimated scf accuracy    <       0.00087182 Ry

     iteration #  7     ecut=    40.00 Ry     beta=0.30
     Davidson diagonalization with overlap
     ethr =  3.35E-06,  avg # of iterations =  1.2

     negative rho (up, down):  7.742E-04 0.000E+00

     total cpu time spent up to now is       12.1 secs

     total energy              =    -496.62567024 Ry
     Harris-Foulkes estimate   =    -496.62567219 Ry
     estimated scf accuracy    <       0.00001599 Ry

     iteration #  8     ecut=    40.00 Ry     beta=0.30
     Davidson diagonalization with overlap
     ethr =  6.15E-08,  avg # of iterations =  3.1

     negative rho (up, down):  7.713E-04 0.000E+00

     total cpu time spent up to now is       13.2 secs

     total energy              =    -496.62567182 Ry
     Harris-Foulkes estimate   =    -496.62567800 Ry
     estimated scf accuracy    <       0.00002357 Ry

     iteration #  9     ecut=    40.00 Ry     beta=0.30
     Davidson diagonalization with overlap
     ethr =  6.15E-08,  avg # of iterations =  2.1

     negative rho (up, down):  7.700E-04 0.000E+00

     total cpu time spent up to now is       14.1 secs

     total energy              =    -496.62567494 Ry
     Harris-Foulkes estimate   =    -496.62567547 Ry
     estimated scf accuracy    <       0.00000206 Ry

     iteration # 10     ecut=    40.00 Ry     beta=0.30
     Davidson diagonalization with overlap
     ethr =  7.91E-09,  avg # of iterations =  2.0

     negative rho (up, down):  7.693E-04 0.000E+00

     total cpu time spent up to now is       15.0 secs

     total energy              =    -496.62567528 Ry
     Harris-Foulkes estimate   =    -496.62567535 Ry
     estimated scf accuracy    <       0.00000026 Ry

     iteration # 11     ecut=    40.00 Ry     beta=0.30
     Davidson diagonalization with overlap
     ethr =  1.01E-09,  avg # of iterations =  2.1

     negative rho (up, down):  7.691E-04 0.000E+00

     total cpu time spent up to now is       16.0 secs

     total energy              =    -496.62567532 Ry
     Harris-Foulkes estimate   =    -496.62567532 Ry
     estimated scf accuracy    <          7.2E-09 Ry

     iteration # 12     ecut=    40.00 Ry     beta=0.30
     Davidson diagonalization with overlap
     ethr =  2.77E-11,  avg # of iterations =  3.0

     negative rho (up, down):  7.691E-04 0.000E+00

     total cpu time spent up to now is       17.1 secs

     total energy              =    -496.62567533 Ry
     Harris-Foulkes estimate   =    -496.62567533 Ry
     estimated scf accuracy    <          1.0E-09 Ry

     iteration # 13     ecut=    40.00 Ry     beta=0.30
     Davidson diagonalization with overlap
     ethr =  3.96E-12,  avg # of iterations =  2.1

     negative rho (up, down):  7.691E-04 0.000E+00

     total cpu time spent up to now is       18.0 secs

     total energy              =    -496.62567533 Ry
     Harris-Foulkes estimate   =    -496.62567533 Ry
     estimated scf accuracy    <          3.1E-10 Ry

     iteration # 14     ecut=    40.00 Ry     beta=0.30
     Davidson diagonalization with overlap
     ethr =  1.18E-12,  avg # of iterations =  2.6

     negative rho (up, down):  7.692E-04 0.000E+00

     total cpu time spent up to now is       19.0 secs

     total energy              =    -496.62567533 Ry
     Harris-Foulkes estimate   =    -496.62567533 Ry
     estimated scf accuracy    <          1.6E-10 Ry

     iteration # 15     ecut=    40.00 Ry     beta=0.30
     Davidson diagonalization with overlap
     ethr =  6.12E-13,  avg # of iterations =  2.1

     negative rho (up, down):  7.693E-04 0.000E+00

     total cpu time spent up to now is       19.9 secs

     End of self-consistent calculation

          k = 0.0000 0.0000 0.0000 (  7993 PWs)   bands (ev):

   -63.7903 -37.8467 -37.6284 -37.6284 -16.1583 -15.4586  -7.8102  -4.9406
    -4.2461  -4.2461  -3.4273  -3.3155  -3.3155  -0.3367  -0.3367  -0.1581
    -0.1581

          k = 0.0000 0.0770 0.0000 (  8017 PWs)   bands (ev):

   -63.7889 -37.8442 -37.6425 -37.6317 -16.0975 -15.4199  -7.7270  -5.0143
    -4.4088  -4.1823  -3.4179  -3.4178  -3.3719  -0.5504  -0.3939  -0.2776
    -0.0841

          k = 0.0000 0.1540 0.0000 (  8051 PWs)   bands (ev):

   -63.7849 -37.8373 -37.6820 -37.6411 -15.9200 -15.3073  -7.4930  -5.2182
    -4.8450  -4.0026  -3.6780  -3.5968  -3.4192  -0.9771  -0.5358  -0.4494
     0.0909

          k = 0.0000 0.2309 0.0000 (  8059 PWs)   bands (ev):

   -63.7790 -37.8271 -37.7397 -37.6547 -15.6416 -15.1310  -7.1647  -5.5349
    -5.4387  -4.0053  -4.0035  -3.7445  -3.5039  -1.2772  -0.6895  -0.4327
     0.2812

          k = 0.0000 0.3079 0.0000 (  8080 PWs)   bands (ev):

   -63.7722 -37.8153 -37.8052 -37.6704 -15.2908 -14.9105  -6.8950  -6.0263
    -5.9710  -4.4270  -4.3270  -3.6634  -3.4728  -1.2728  -0.7710  -0.2289
     0.4316

          k = 0.0000 0.3849 0.0000 (  8104 PWs)   bands (ev):

   -63.7657 -37.8674 -37.8040 -37.6852 -14.9133 -14.6771  -7.0850  -6.4812
    -6.2426  -4.7238  -4.5974  -3.7264  -3.2622  -1.0176  -0.7245   0.0462
     0.5273

          k = 0.0000 0.4619 0.0000 (  8112 PWs)   bands (ev):

   -63.7606 -37.9156 -37.7952 -37.6968 -14.5783 -14.4750  -7.5527  -6.9329
    -6.2310  -4.8891  -4.7897  -3.6110  -3.1476  -0.6534  -0.5784   0.2865
     0.5778

          k = 0.0000 0.5389 0.0000 (  8130 PWs)   bands (ev):

   -63.7579 -37.9418 -37.7904 -37.7031 -14.3746 -14.3553  -7.8556  -7.1957
    -6.2433  -4.9609  -4.8891  -3.4675  -3.1062  -0.4504  -0.3610   0.4215
     0.5981

          k = 0.0667 0.1155 0.0000 (  8038 PWs)   bands (ev):

   -63.7862 -37.8395 -37.6688 -37.6385 -15.9783 -15.3443  -7.5678  -5.1479
    -4.7043  -4.0646  -3.6855  -3.4283  -3.4129  -0.8594  -0.5013  -0.4325
     0.0491

          k = 0.0667 0.1925 0.0000 (  8059 PWs)   bands (ev):

   -63.7813 -37.8309 -37.7161 -37.6512 -15.7502 -15.1995  -7.2814  -5.3811
    -5.2069  -4.1512  -3.8703  -3.5929  -3.4472  -1.2150  -0.6499  -0.5217
     0.2415

          k = 0.0667 0.2694 0.0000 (  8075 PWs)   bands (ev):

   -63.7749 -37.8200 -37.7761 -37.6675 -15.4347 -15.0003  -6.9561  -5.7909
    -5.7215  -4.6364  -3.8832  -3.7635  -3.4607  -1.3799  -0.7266  -0.4150
     0.4113

          k = 0.0667 0.3464 0.0000 (  8088 PWs)   bands (ev):

   -63.7683 -37.8381 -37.8085 -37.6845 -15.0682 -14.7713  -6.8740  -6.1983
    -6.1980  -4.9622  -4.2156  -3.8698  -3.3021  -1.2895  -0.6554  -0.1749
     0.5246

          k = 0.0667 0.4234 0.0000 (  8102 PWs)   bands (ev):

   -63.7625 -37.8919 -37.7984 -37.6992 -14.7073 -14.5501  -7.2837  -6.7055
    -6.2080  -5.1027  -4.5201  -3.8793  -3.1627  -1.0122  -0.4682   0.0914
     0.5775

          k = 0.0667 0.5004 0.0000 (  8111 PWs)   bands (ev):

   -63.7585 -37.9281 -37.7915 -37.7091 -14.4315 -14.3852  -7.6828  -7.0811
    -6.2067  -5.1221  -4.7558  -3.7917  -3.0612  -0.6788  -0.2881   0.3068
     0.5738

          k = 0.0667 0.5774 0.0000 (  8126 PWs)   bands (ev):

   -63.7571 -37.9409 -37.7891 -37.7126 -14.3262 -14.3235  -7.8367  -7.2186
    -6.2182  -5.0989  -4.8625  -3.7470  -3.0146  -0.5119  -0.2220   0.4094
     0.5438

          k = 0.1333 0.2309 0.0000 (  8090 PWs)   bands (ev):

   -63.7759 -37.8216 -37.7635 -37.6688 -15.4843 -15.0312  -6.9817  -5.6827
    -5.5779  -4.7911  -3.8515  -3.6784  -3.4276  -1.4343  -0.7064  -0.5336
     0.4201

          k = 0.1333 0.3079 0.0000 (  8089 PWs)   bands (ev):

   -63.7697 -37.8163 -37.8109 -37.6901 -15.1508 -14.8211  -6.7515  -6.1118
    -5.8877  -5.3033  -4.0624  -3.9204  -3.3003  -1.4956  -0.5881  -0.4104
     0.5564

          k = 0.1333 0.3849 0.0000 (  8097 PWs)   bands (ev):

   -63.7637 -37.8660 -37.8006 -37.7108 -14.7948 -14.5994  -6.9788  -6.4129
    -6.1611  -5.4590  -4.2747  -4.2499  -3.1843  -1.3153  -0.3597  -0.2192
     0.6491

          k = 0.1333 0.4619 0.0000 (  8110 PWs)   bands (ev):

   -63.7591 -37.9046 -37.7925 -37.7270 -14.4821 -14.4081  -7.3769  -6.8895
    -6.1218  -5.4308  -4.5821  -4.3578  -3.0579  -0.9757  -0.1656  -0.0569
     0.7154

          k = 0.1333 0.5389 0.0000 (  8152 PWs)   bands (ev):

   -63.7565 -37.9255 -37.7881 -37.7361 -14.2952 -14.2940  -7.6281  -7.1590
    -6.1402  -5.3357  -4.8320  -4.3668  -2.9417  -0.6663  -0.1054   0.0271
     0.7546

          k = 0.2000 0.3464 0.0000 (  8106 PWs)   bands (ev):

   -63.7642 -37.8537 -37.8013 -37.7181 -14.8256 -14.6166  -6.8308  -6.1990
    -6.1346  -5.7038  -4.4697  -4.1367  -3.1966  -1.4299  -0.3653  -0.3216
     0.6884

          k = 0.2000 0.4234 0.0000 (  8139 PWs)   bands (ev):

   -63.7594 -37.8833 -37.7930 -37.7455 -14.5119 -14.4205  -7.0972  -6.6933
    -6.0242  -5.7123  -4.8381  -4.4580  -3.0778  -1.1641  -0.3283  -0.0941
     0.8336

          k = 0.2000 0.5004 0.0000 (  8161 PWs)   bands (ev):

   -63.7561 -37.9019 -37.7874 -37.7654 -14.2779 -14.2756  -7.3095  -7.0557
    -6.0305  -5.5915  -5.0330  -4.7813  -2.9119  -0.8508  -0.3220  -0.0191
     0.9638

          k = 0.2000 0.5774 0.0000 (  8180 PWs)   bands (ev):

   -63.7550 -37.9082 -37.7854 -37.7728 -14.2217 -14.1901  -7.3893  -7.1857
    -6.0628  -5.4939  -5.0810  -4.9497  -2.8250  -0.6942  -0.3245  -0.0366
     1.0166

          k = 0.2667 0.4619 0.0000 (  8186 PWs)   bands (ev):

   -63.7560 -37.8878 -37.7872 -37.7816 -14.2733 -14.2687  -7.1236  -6.9981
    -5.9376  -5.7093  -5.3947  -4.7550  -2.9037  -0.9324  -0.4584   0.0122
     1.0481

          k = 0.2667 0.5389 0.0000 (  8188 PWs)   bands (ev):

   -63.7541 -37.8836 -37.8081 -37.7839 -14.1802 -14.1351  -7.1877  -7.0691
    -6.0251  -5.6590  -5.5890  -5.0193  -2.7381  -0.7720  -0.5429  -0.0028
     1.1912

          k = 0.3333 0.5774 0.0000 (  8220 PWs)   bands (ev):

   -63.7534 -37.8595 -37.8409 -37.7827 -14.1453 -14.0838  -7.2393  -6.8255
    -6.2502  -5.8156  -5.5380  -5.1501  -2.6508  -0.7673  -0.6260  -0.0056
     1.2814

     the Fermi energy is    -2.4561 ev

!    total energy              =    -496.62567533 Ry
     Harris-Foulkes estimate   =    -496.62567533 Ry
     estimated scf accuracy    <          3.0E-11 Ry

     total all-electron energy =     -9694.957062 Ry

     The total energy is the sum of the following terms:

     one-electron contribution =   -2025.31507392 Ry
     hartree contribution      =    1013.68266903 Ry
     xc contribution           =     -42.24433824 Ry
     ewald contribution        =     864.17067338 Ry
     one-center paw contrib.   =    -306.92745425 Ry
     smearing contrib. (-TS)   =       0.00784867 Ry

     convergence has been achieved in  15 iterations

     Forces acting on atoms (Ry/au):


     negative rho (up, down):  7.693E-04 0.000E+00
     atom    1 type  1   force =     0.00000000    0.00000000    0.00000000
     atom    2 type  2   force =     0.00000000    0.00000000    0.12294017
     atom    3 type  2   force =     0.00000000    0.00000000   -0.12294017

     Total force =     0.173864     Total SCF correction =     0.000018

     BFGS Geometry Optimization

     number of scf cycles    =   1
     number of bfgs steps    =   0

     energy   new            =    -496.6256753304 Ry

     new trust radius        =       0.1229401680 bohr
     new conv_thr            =            1.0E-10 Ry


ATOMIC_POSITIONS (crystal)
Mo       0.000000000   0.000000000   0.000000000
S        0.333333000   0.666667000   0.945707809
S        0.333333000   0.666667000   0.054292191



     Writing output data file MoS2_a603.save
     Check: negative starting charge=   -0.000733
     NEW-OLD atomic charge density approx. for the potential
     Check: negative starting charge=   -0.000741

     negative rho (up, down):  7.819E-04 0.000E+00

     total cpu time spent up to now is       22.4 secs

     per-process dynamical memory:    26.2 Mb

     Self-consistent Calculation

     iteration #  1     ecut=    40.00 Ry     beta=0.30
     Davidson diagonalization with overlap
     ethr =  1.00E-06,  avg # of iterations =  6.0

     negative rho (up, down):  7.801E-04 0.000E+00

     total cpu time spent up to now is       24.2 secs

     total energy              =    -496.65199129 Ry
     Harris-Foulkes estimate   =    -496.64874016 Ry
     estimated scf accuracy    <       0.00234468 Ry

     iteration #  2     ecut=    40.00 Ry     beta=0.30
     Davidson diagonalization with overlap
     ethr =  9.02E-06,  avg # of iterations =  2.1

     negative rho (up, down):  7.804E-04 0.000E+00

     total cpu time spent up to now is       25.1 secs

     total energy              =    -496.65221045 Ry
     Harris-Foulkes estimate   =    -496.65318665 Ry
     estimated scf accuracy    <       0.00452919 Ry

     iteration #  3     ecut=    40.00 Ry     beta=0.30
     Davidson diagonalization with overlap
     ethr =  9.02E-06,  avg # of iterations =  2.0

     negative rho (up, down):  7.768E-04 0.000E+00

     total cpu time spent up to now is       26.0 secs

     total energy              =    -496.65265517 Ry
     Harris-Foulkes estimate   =    -496.65267700 Ry
     estimated scf accuracy    <       0.00012685 Ry

     iteration #  4     ecut=    40.00 Ry     beta=0.30
     Davidson diagonalization with overlap
     ethr =  4.88E-07,  avg # of iterations =  2.1

     negative rho (up, down):  7.768E-04 0.000E+00

     total cpu time spent up to now is       26.9 secs

     total energy              =    -496.65267128 Ry
     Harris-Foulkes estimate   =    -496.65267682 Ry
     estimated scf accuracy    <       0.00002938 Ry

     iteration #  5     ecut=    40.00 Ry     beta=0.30
     Davidson diagonalization with overlap
     ethr =  1.13E-07,  avg # of iterations =  1.0

     negative rho (up, down):  7.768E-04 0.000E+00

     total cpu time spent up to now is       27.7 secs

     total energy              =    -496.65267451 Ry
     Harris-Foulkes estimate   =    -496.65267416 Ry
     estimated scf accuracy    <       0.00000234 Ry

     iteration #  6     ecut=    40.00 Ry     beta=0.30
     Davidson diagonalization with overlap
     ethr =  8.98E-09,  avg # of iterations =  3.0

     negative rho (up, down):  7.767E-04 0.000E+00

     total cpu time spent up to now is       28.8 secs

     total energy              =    -496.65267512 Ry
     Harris-Foulkes estimate   =    -496.65267517 Ry
     estimated scf accuracy    <       0.00000084 Ry

     iteration #  7     ecut=    40.00 Ry     beta=0.30
     Davidson diagonalization with overlap
     ethr =  3.21E-09,  avg # of iterations =  1.0

     negative rho (up, down):  7.767E-04 0.000E+00

     total cpu time spent up to now is       29.6 secs

     total energy              =    -496.65267483 Ry
     Harris-Foulkes estimate   =    -496.65267514 Ry
     estimated scf accuracy    <       0.00000068 Ry

     iteration #  8     ecut=    40.00 Ry     beta=0.30
     Davidson diagonalization with overlap
     ethr =  2.61E-09,  avg # of iterations =  2.0

     negative rho (up, down):  7.767E-04 0.000E+00

     total cpu time spent up to now is       30.5 secs

     total energy              =    -496.65267500 Ry
     Harris-Foulkes estimate   =    -496.65267502 Ry
     estimated scf accuracy    <       0.00000007 Ry

     iteration #  9     ecut=    40.00 Ry     beta=0.30
     Davidson diagonalization with overlap
     ethr =  2.80E-10,  avg # of iterations =  2.0

     negative rho (up, down):  7.768E-04 0.000E+00

     total cpu time spent up to now is       31.4 secs

     total energy              =    -496.65267499 Ry
     Harris-Foulkes estimate   =    -496.65267500 Ry
     estimated scf accuracy    <       0.00000003 Ry

     iteration # 10     ecut=    40.00 Ry     beta=0.30
     Davidson diagonalization with overlap
     ethr =  1.31E-10,  avg # of iterations =  2.0

     negative rho (up, down):  7.768E-04 0.000E+00

     total cpu time spent up to now is       32.3 secs

     total energy              =    -496.65267500 Ry
     Harris-Foulkes estimate   =    -496.65267500 Ry
     estimated scf accuracy    <          2.0E-09 Ry

     iteration # 11     ecut=    40.00 Ry     beta=0.30
     Davidson diagonalization with overlap
     ethr =  7.55E-12,  avg # of iterations =  2.2

     negative rho (up, down):  7.768E-04 0.000E+00

     total cpu time spent up to now is       33.3 secs

     total energy              =    -496.65267500 Ry
     Harris-Foulkes estimate   =    -496.65267500 Ry
     estimated scf accuracy    <          4.4E-10 Ry

     iteration # 12     ecut=    40.00 Ry     beta=0.30
     Davidson diagonalization with overlap
     ethr =  1.70E-12,  avg # of iterations =  2.0

     negative rho (up, down):  7.769E-04 0.000E+00

     total cpu time spent up to now is       34.3 secs

     End of self-consistent calculation

          k = 0.0000 0.0000 0.0000 (  7993 PWs)   bands (ev):

   -63.7750 -37.8397 -37.6348 -37.6348 -16.3370 -15.5073  -7.9534  -4.8617
    -4.5325  -4.5325  -3.5747  -3.5746  -3.2788  -0.2236  -0.2236  -0.1250
    -0.1250

          k = 0.0000 0.0770 0.0000 (  8017 PWs)   bands (ev):

   -63.7736 -37.8370 -37.6493 -37.6382 -16.2751 -15.4713  -7.8718  -4.9692
    -4.6944  -4.4681  -3.6788  -3.5907  -3.2797  -0.4274  -0.2839  -0.2376
    -0.0399

          k = 0.0000 0.1540 0.0000 (  8051 PWs)   bands (ev):

   -63.7695 -37.8296 -37.6900 -37.6477 -16.0949 -15.3666  -7.6435  -5.2451
    -5.1224  -4.2861  -3.9432  -3.7245  -3.3142  -0.8318  -0.4345  -0.3930
     0.1648

          k = 0.0000 0.2309 0.0000 (  8059 PWs)   bands (ev):

   -63.7635 -37.8187 -37.7494 -37.6616 -15.8128 -15.2031  -7.3303  -5.6873
    -5.6335  -4.2760  -4.0351  -4.0209  -3.4499  -1.1114  -0.6030  -0.3508
     0.3946

          k = 0.0000 0.3079 0.0000 (  8080 PWs)   bands (ev):

   -63.7565 -37.8169 -37.8061 -37.6777 -15.4584 -14.9994  -7.1070  -6.2044
    -6.1114  -4.6029  -4.3949  -3.7322  -3.6540  -1.1079  -0.7092  -0.1125
     0.5839

          k = 0.0000 0.3849 0.0000 (  8104 PWs)   bands (ev):

   -63.7499 -37.8809 -37.7940 -37.6929 -15.0788 -14.7849  -7.3256  -6.6221
    -6.3690  -4.8774  -4.6710  -3.7365  -3.4916  -0.8771  -0.6998   0.1962
     0.7113

          k = 0.0000 0.4619 0.0000 (  8112 PWs)   bands (ev):

   -63.7447 -37.9305 -37.7845 -37.7047 -14.7436 -14.6003  -7.7577  -7.0556
    -6.3794  -5.0724  -4.8368  -3.6173  -3.3437  -0.5930  -0.5441   0.4589
     0.7828

          k = 0.0000 0.5389 0.0000 (  8130 PWs)   bands (ev):

   -63.7419 -37.9575 -37.7794 -37.7112 -14.5405 -14.4916  -8.0385  -7.3041
    -6.4080  -5.1732  -4.9118  -3.4639  -3.2816  -0.4892  -0.2706   0.6027
     0.8134

          k = 0.0667 0.1155 0.0000 (  8038 PWs)   bands (ev):

   -63.7708 -37.8320 -37.6764 -37.6451 -16.1540 -15.4010  -7.7162  -5.1519
    -4.9855  -4.3488  -3.9354  -3.5986  -3.2967  -0.7208  -0.3967  -0.3845
     0.1168

          k = 0.0667 0.1925 0.0000 (  8059 PWs)   bands (ev):

   -63.7658 -37.8228 -37.7252 -37.6581 -15.9226 -15.2666  -7.4395  -5.4701
    -5.4480  -4.3753  -4.1456  -3.7070  -3.3781  -1.0555  -0.5556  -0.4602
     0.3499

          k = 0.0667 0.2694 0.0000 (  8075 PWs)   bands (ev):

   -63.7593 -37.8111 -37.7869 -37.6748 -15.6036 -15.0821  -7.1428  -6.0062
    -5.8461  -4.8151  -3.9655  -3.9580  -3.5089  -1.2114  -0.6501  -0.3286
     0.5639

          k = 0.0667 0.3464 0.0000 (  8088 PWs)   bands (ev):

   -63.7525 -37.8508 -37.7988 -37.6922 -15.2343 -14.8710  -7.1215  -6.3472
    -6.3277  -5.1116  -4.2857  -3.9645  -3.4565  -1.1384  -0.6069  -0.0553
     0.7135

          k = 0.0667 0.4234 0.0000 (  8102 PWs)   bands (ev):

   -63.7466 -37.9061 -37.7880 -37.7072 -14.8723 -14.6682  -7.5068  -6.8456
    -6.3434  -5.2553  -4.5802  -3.9613  -3.3014  -0.9025  -0.4465   0.2443
     0.7856

          k = 0.0667 0.5004 0.0000 (  8111 PWs)   bands (ev):

   -63.7425 -37.9434 -37.7807 -37.7173 -14.5969 -14.5179  -7.8733  -7.2054
    -6.3663  -5.2980  -4.7956  -3.8733  -3.1622  -0.6316  -0.2596   0.4928
     0.7768

          k = 0.0667 0.5774 0.0000 (  8126 PWs)   bands (ev):

   -63.7411 -37.9565 -37.7781 -37.7210 -14.4921 -14.4618  -8.0154  -7.3360
    -6.3869  -5.2990  -4.8798  -3.8298  -3.0973  -0.5128  -0.1646   0.6331
     0.7167

          k = 0.1333 0.2309 0.0000 (  8090 PWs)   bands (ev):

   -63.7603 -37.8128 -37.7740 -37.6762 -15.6537 -15.1106  -7.1607  -5.9109
    -5.6816  -4.9976  -4.0619  -3.7512  -3.4554  -1.2642  -0.6247  -0.4649
     0.5787

          k = 0.1333 0.3079 0.0000 (  8089 PWs)   bands (ev):

   -63.7539 -37.8284 -37.8013 -37.6979 -15.3173 -14.9165  -6.9924  -6.2556
    -6.0416  -5.4654  -4.2059  -3.9662  -3.4090  -1.3265  -0.5350  -0.3191
     0.7572

          k = 0.1333 0.3849 0.0000 (  8097 PWs)   bands (ev):

   -63.7478 -37.8795 -37.7903 -37.7192 -14.9596 -14.7124  -7.2254  -6.5831
    -6.2772  -5.6006  -4.4064  -4.2821  -3.2889  -1.1641  -0.3442  -0.0900
     0.8684

          k = 0.1333 0.4619 0.0000 (  8110 PWs)   bands (ev):

   -63.7431 -37.9192 -37.7816 -37.7358 -14.6470 -14.5371  -7.5806  -7.0502
    -6.2702  -5.5790  -4.6023  -4.4813  -3.1346  -0.8641  -0.1635   0.1181
     0.9243

          k = 0.1333 0.5389 0.0000 (  8152 PWs)   bands (ev):

   -63.7405 -37.9408 -37.7770 -37.7451 -14.4597 -14.4340  -7.8068  -7.3111
    -6.3108  -5.5061  -4.8296  -4.4827  -2.9953  -0.6225  -0.0624   0.2373
     0.9425

          k = 0.2000 0.3464 0.0000 (  8106 PWs)   bands (ev):

   -63.7483 -37.8669 -37.7911 -37.7267 -14.9905 -14.7277  -7.0926  -6.4041
    -6.2361  -5.8181  -4.6167  -4.1559  -3.2939  -1.2617  -0.3083  -0.2459
     0.9127

          k = 0.2000 0.4234 0.0000 (  8139 PWs)   bands (ev):

   -63.7434 -37.8973 -37.7822 -37.7548 -14.6764 -14.5471  -7.3189  -6.9007
    -6.1498  -5.8206  -4.9848  -4.4626  -3.1527  -1.0146  -0.1634  -0.1017
     1.0523

          k = 0.2000 0.5004 0.0000 (  8161 PWs)   bands (ev):

   -63.7401 -37.9165 -37.7762 -37.7753 -14.4431 -14.4140  -7.4947  -7.2583
    -6.1922  -5.7052  -5.1664  -4.7734  -2.9643  -0.7680  -0.1196   0.0181
     1.1674

          k = 0.2000 0.5774 0.0000 (  8180 PWs)   bands (ev):

   -63.7389 -37.9230 -37.7828 -37.7741 -14.3645 -14.3559  -7.5595  -7.3861
    -6.2415  -5.6200  -5.2069  -4.9272  -2.8653  -0.6774  -0.1086   0.0613
     1.2132

          k = 0.2667 0.4619 0.0000 (  8186 PWs)   bands (ev):

   -63.7399 -37.9021 -37.7919 -37.7760 -14.4384 -14.4067  -7.3173  -7.2294
    -6.0780  -5.7909  -5.5455  -4.7461  -2.9587  -0.8339  -0.2587   0.0480
     1.2591

          k = 0.2667 0.5389 0.0000 (  8188 PWs)   bands (ev):

   -63.7380 -37.8979 -37.8189 -37.7725 -14.3249 -14.3009  -7.4281  -7.2381
    -6.1963  -5.7974  -5.6616  -5.0022  -2.7750  -0.7753  -0.3250   0.1351
     1.3990

          k = 0.3333 0.5774 0.0000 (  8220 PWs)   bands (ev):

   -63.7373 -37.8747 -37.8511 -37.7712 -14.2921 -14.2499  -7.4938  -6.9842
    -6.4148  -5.9702  -5.5919  -5.1335  -2.6792  -0.8206  -0.4033   0.1872
     1.4924

     the Fermi energy is    -2.5383 ev

!    total energy              =    -496.65267500 Ry
     Harris-Foulkes estimate   =    -496.65267500 Ry
     estimated scf accuracy    <          9.8E-11 Ry

     total all-electron energy =     -9694.984061 Ry

     The total energy is the sum of the following terms:

     one-electron contribution =   -2044.48989151 Ry
     hartree contribution      =    1023.23757415 Ry
     xc contribution           =     -42.32386534 Ry
     ewald contribution        =     873.85004789 Ry
     one-center paw contrib.   =    -306.93272501 Ry
     smearing contrib. (-TS)   =       0.00618482 Ry

     convergence has been achieved in  12 iterations

     Forces acting on atoms (Ry/au):


     negative rho (up, down):  7.769E-04 0.000E+00
     atom    1 type  1   force =     0.00000000    0.00000000    0.00000000
     atom    2 type  2   force =     0.00000000    0.00000000    0.09576710
     atom    3 type  2   force =     0.00000000    0.00000000   -0.09576710

     Total force =     0.135435     Total SCF correction =     0.000026

     number of scf cycles    =   2
     number of bfgs steps    =   1

     energy   old            =    -496.6256753304 Ry
     energy   new            =    -496.6526749977 Ry

     CASE: energy  _new < energy  _old

     new trust radius        =       0.1352341848 bohr
     new conv_thr            =            9.6E-11 Ry


ATOMIC_POSITIONS (crystal)
Mo       0.000000000   0.000000000   0.000000000
S        0.333333000   0.666667000   0.947950498
S        0.333333000   0.666667000   0.052049502



     Writing output data file MoS2_a603.save
     Check: negative starting charge=   -0.000741
     NEW-OLD atomic charge density approx. for the potential
     Check: negative starting charge=   -0.000749

     negative rho (up, down):  7.899E-04 0.000E+00

     total cpu time spent up to now is       36.8 secs

     per-process dynamical memory:    26.2 Mb

     Self-consistent Calculation

     iteration #  1     ecut=    40.00 Ry     beta=0.30
     Davidson diagonalization with overlap
     ethr =  1.00E-06,  avg # of iterations =  6.1

     negative rho (up, down):  7.881E-04 0.000E+00

     total cpu time spent up to now is       38.6 secs

     total energy              =    -496.67312139 Ry
     Harris-Foulkes estimate   =    -496.67005416 Ry
     estimated scf accuracy    <       0.00257365 Ry

     iteration #  2     ecut=    40.00 Ry     beta=0.30
     Davidson diagonalization with overlap
     ethr =  9.90E-06,  avg # of iterations =  2.0

     negative rho (up, down):  7.880E-04 0.000E+00

     total cpu time spent up to now is       39.6 secs

     total energy              =    -496.67344597 Ry
     Harris-Foulkes estimate   =    -496.67425338 Ry
     estimated scf accuracy    <       0.00341726 Ry

     iteration #  3     ecut=    40.00 Ry     beta=0.30
     Davidson diagonalization with overlap
     ethr =  9.90E-06,  avg # of iterations =  1.7

     negative rho (up, down):  7.844E-04 0.000E+00

     total cpu time spent up to now is       40.4 secs

     total energy              =    -496.67380789 Ry
     Harris-Foulkes estimate   =    -496.67383024 Ry
     estimated scf accuracy    <       0.00014363 Ry

     iteration #  4     ecut=    40.00 Ry     beta=0.30
     Davidson diagonalization with overlap
     ethr =  5.52E-07,  avg # of iterations =  2.4

     negative rho (up, down):  7.844E-04 0.000E+00

     total cpu time spent up to now is       41.4 secs

     total energy              =    -496.67382549 Ry
     Harris-Foulkes estimate   =    -496.67383339 Ry
     estimated scf accuracy    <       0.00003673 Ry

     iteration #  5     ecut=    40.00 Ry     beta=0.30
     Davidson diagonalization with overlap
     ethr =  1.41E-07,  avg # of iterations =  1.3

     negative rho (up, down):  7.843E-04 0.000E+00

     total cpu time spent up to now is       42.2 secs

     total energy              =    -496.67383005 Ry
     Harris-Foulkes estimate   =    -496.67382949 Ry
     estimated scf accuracy    <       0.00000252 Ry

     iteration #  6     ecut=    40.00 Ry     beta=0.30
     Davidson diagonalization with overlap
     ethr =  9.69E-09,  avg # of iterations =  3.0

     negative rho (up, down):  7.844E-04 0.000E+00

     total cpu time spent up to now is       43.2 secs

     total energy              =    -496.67383062 Ry
     Harris-Foulkes estimate   =    -496.67383067 Ry
     estimated scf accuracy    <       0.00000078 Ry

     iteration #  7     ecut=    40.00 Ry     beta=0.30
     Davidson diagonalization with overlap
     ethr =  3.01E-09,  avg # of iterations =  1.0

     negative rho (up, down):  7.844E-04 0.000E+00

     total cpu time spent up to now is       44.1 secs

     total energy              =    -496.67383039 Ry
     Harris-Foulkes estimate   =    -496.67383064 Ry
     estimated scf accuracy    <       0.00000063 Ry

     iteration #  8     ecut=    40.00 Ry     beta=0.30
     Davidson diagonalization with overlap
     ethr =  2.42E-09,  avg # of iterations =  2.0

     negative rho (up, down):  7.844E-04 0.000E+00

     total cpu time spent up to now is       45.0 secs

     total energy              =    -496.67383053 Ry
     Harris-Foulkes estimate   =    -496.67383055 Ry
     estimated scf accuracy    <       0.00000006 Ry

     iteration #  9     ecut=    40.00 Ry     beta=0.30
     Davidson diagonalization with overlap
     ethr =  2.20E-10,  avg # of iterations =  2.0

     negative rho (up, down):  7.845E-04 0.000E+00

     total cpu time spent up to now is       45.9 secs

     total energy              =    -496.67383053 Ry
     Harris-Foulkes estimate   =    -496.67383054 Ry
     estimated scf accuracy    <       0.00000002 Ry

     iteration # 10     ecut=    40.00 Ry     beta=0.30
     Davidson diagonalization with overlap
     ethr =  8.90E-11,  avg # of iterations =  2.0

     negative rho (up, down):  7.845E-04 0.000E+00

     total cpu time spent up to now is       46.9 secs

     total energy              =    -496.67383054 Ry
     Harris-Foulkes estimate   =    -496.67383053 Ry
     estimated scf accuracy    <          2.2E-09 Ry

     iteration # 11     ecut=    40.00 Ry     beta=0.30
     Davidson diagonalization with overlap
     ethr =  8.60E-12,  avg # of iterations =  2.2

     negative rho (up, down):  7.845E-04 0.000E+00

     total cpu time spent up to now is       47.8 secs

     total energy              =    -496.67383054 Ry
     Harris-Foulkes estimate   =    -496.67383054 Ry
     estimated scf accuracy    <          7.2E-10 Ry

     iteration # 12     ecut=    40.00 Ry     beta=0.30
     Davidson diagonalization with overlap
     ethr =  2.75E-12,  avg # of iterations =  2.0

     negative rho (up, down):  7.845E-04 0.000E+00

     total cpu time spent up to now is       48.7 secs

     total energy              =    -496.67383054 Ry
     Harris-Foulkes estimate   =    -496.67383054 Ry
     estimated scf accuracy    <          1.2E-10 Ry

     iteration # 13     ecut=    40.00 Ry     beta=0.30
     Davidson diagonalization with overlap
     ethr =  4.43E-13,  avg # of iterations =  1.7

     negative rho (up, down):  7.845E-04 0.000E+00

     total cpu time spent up to now is       49.6 secs

     End of self-consistent calculation

          k = 0.0000 0.0000 0.0000 (  7993 PWs)   bands (ev):

   -63.7602 -37.8433 -37.6445 -37.6445 -16.5524 -15.5521  -8.1323  -4.8853
    -4.8853  -4.7554  -3.8798  -3.8797  -3.1005  -0.0953  -0.0953  -0.0774
    -0.0774

          k = 0.0000 0.0770 0.0000 (  8017 PWs)   bands (ev):

   -63.7587 -37.8405 -37.6596 -37.6480 -16.4893 -15.5196  -8.0529  -5.0435
    -4.9270  -4.8196  -3.9851  -3.8225  -3.1139  -0.2719  -0.2012  -0.1424
     0.0023

          k = 0.0000 0.1540 0.0000 (  8051 PWs)   bands (ev):

   -63.7545 -37.8324 -37.7020 -37.6579 -16.3058 -15.4249  -7.8327  -5.4550
    -5.3023  -4.6326  -4.2532  -3.8306  -3.1879  -0.6550  -0.3402  -0.3062
     0.2412

          k = 0.0000 0.2309 0.0000 (  8059 PWs)   bands (ev):

   -63.7483 -37.8206 -37.7637 -37.6722 -16.0194 -15.2776  -7.5415  -5.9762
    -5.7631  -4.5907  -4.3562  -4.0359  -3.3839  -0.9154  -0.4962  -0.2708
     0.5179

          k = 0.0000 0.3079 0.0000 (  8080 PWs)   bands (ev):

   -63.7411 -37.8338 -37.8071 -37.6888 -15.6615 -15.0951  -7.3768  -6.3999
    -6.2715  -4.9223  -4.3352  -4.0452  -3.6427  -0.9169  -0.6351   0.0057
     0.7552

          k = 0.0000 0.3849 0.0000 (  8104 PWs)   bands (ev):

   -63.7343 -37.9003 -37.7940 -37.7044 -15.2804 -14.9042  -7.6107  -6.7745
    -6.5136  -5.2006  -4.5916  -3.7685  -3.7541  -0.7186  -0.6711   0.3519
     0.9221

          k = 0.0000 0.4619 0.0000 (  8112 PWs)   bands (ev):

   -63.7289 -37.9518 -37.7838 -37.7166 -14.9461 -14.7412  -7.9954  -7.1851
    -6.5486  -5.3982  -4.7567  -3.6339  -3.5804  -0.6123  -0.4306   0.6393
     1.0205

          k = 0.0000 0.5389 0.0000 (  8130 PWs)   bands (ev):

   -63.7260 -37.9799 -37.7782 -37.7233 -14.7448 -14.6458  -8.2453  -7.4168
    -6.5978  -5.5003  -4.8341  -3.4926  -3.4683  -0.5391  -0.1913   0.7924
     1.0643

          k = 0.0667 0.1155 0.0000 (  8038 PWs)   bands (ev):

   -63.7558 -37.8350 -37.6878 -37.6552 -16.3660 -15.4559  -7.9024  -5.3248
    -5.1799  -4.6968  -4.2325  -3.7534  -3.1572  -0.5502  -0.3403  -0.2640
     0.1856

          k = 0.0667 0.1925 0.0000 (  8059 PWs)   bands (ev):

   -63.7506 -37.8251 -37.7385 -37.6686 -16.1308 -15.3347  -7.6399  -5.7806
    -5.5469  -4.6498  -4.4825  -3.7856  -3.2921  -0.8648  -0.4390  -0.4021
     0.4659

          k = 0.0667 0.2694 0.0000 (  8075 PWs)   bands (ev):

   -63.7439 -37.8124 -37.8027 -37.6858 -15.8078 -15.1689  -7.3833  -6.2479
    -5.9979  -5.0555  -4.2495  -3.9971  -3.5089  -1.0158  -0.5574  -0.2431
     0.7329

          k = 0.0667 0.3464 0.0000 (  8088 PWs)   bands (ev):

   -63.7370 -37.8691 -37.7992 -37.7037 -15.4360 -14.9803  -7.4197  -6.5146
    -6.4747  -5.3367  -4.2921  -4.1372  -3.5861  -0.9693  -0.5475   0.0678
     0.9269

          k = 0.0667 0.4234 0.0000 (  8102 PWs)   bands (ev):

   -63.7309 -37.9266 -37.7875 -37.7192 -15.0739 -14.8003  -7.7686  -6.9990
    -6.4974  -5.4929  -4.5652  -4.0897  -3.4473  -0.7904  -0.4176   0.4057
     1.0229

          k = 0.0667 0.5004 0.0000 (  8111 PWs)   bands (ev):

   -63.7267 -37.9652 -37.7796 -37.7297 -14.8003 -14.6678  -8.0911  -7.3404
    -6.5490  -5.5629  -4.7541  -3.9925  -3.2733  -0.6045  -0.2250   0.6900
     1.0109

          k = 0.0667 0.5774 0.0000 (  8126 PWs)   bands (ev):

   -63.7253 -37.9789 -37.7768 -37.7334 -14.6967 -14.6187  -8.2167  -7.4632
    -6.5815  -5.5812  -4.8220  -3.9470  -3.1891  -0.5357  -0.1119   0.8808
     0.9090

          k = 0.1333 0.2309 0.0000 (  8090 PWs)   bands (ev):

   -63.7450 -37.8143 -37.7893 -37.6872 -15.8583 -15.1943  -7.3914  -6.1702
    -5.8158  -5.2450  -4.3513  -3.7908  -3.4513  -1.0660  -0.5263  -0.3988
     0.7531

          k = 0.1333 0.3079 0.0000 (  8089 PWs)   bands (ev):

   -63.7384 -37.8458 -37.8019 -37.7097 -15.5192 -15.0202  -7.2900  -6.4157
    -6.2282  -5.6592  -4.4055  -3.9772  -3.5114  -1.1346  -0.4731  -0.2269
     0.9823

          k = 0.1333 0.3849 0.0000 (  8097 PWs)   bands (ev):

   -63.7322 -37.8990 -37.7900 -37.7316 -15.1606 -14.8381  -7.5143  -6.7811
    -6.4118  -5.7750  -4.5705  -4.2758  -3.4136  -0.9934  -0.3344   0.0458
     1.1165

          k = 0.1333 0.4619 0.0000 (  8110 PWs)   bands (ev):

   -63.7273 -37.9401 -37.7806 -37.7489 -14.8493 -14.6825  -7.8164  -7.2363
    -6.4384  -5.7616  -4.6284  -4.5792  -3.2381  -0.7457  -0.1762   0.3084
     1.1587

          k = 0.1333 0.5389 0.0000 (  8152 PWs)   bands (ev):

   -63.7246 -37.9625 -37.7756 -37.7584 -14.6638 -14.5913  -8.0083  -7.4874
    -6.5063  -5.7096  -4.7834  -4.6175  -3.0754  -0.6007  -0.0239   0.4747
     1.1453

          k = 0.2000 0.3464 0.0000 (  8106 PWs)   bands (ev):

   -63.7326 -37.8859 -37.7909 -37.7395 -15.1912 -14.8510  -7.3965  -6.6461
    -6.3584  -5.9476  -4.7915  -4.1440  -3.4138  -1.0708  -0.3032  -0.1213
     1.1662

          k = 0.2000 0.4234 0.0000 (  8139 PWs)   bands (ev):

   -63.7276 -37.9175 -37.7813 -37.7686 -14.8779 -14.6895  -7.5765  -7.1447
    -6.2915  -5.9375  -5.1522  -4.4365  -3.2577  -0.8489  -0.1318   0.0158
     1.2972

          k = 0.2000 0.5004 0.0000 (  8161 PWs)   bands (ev):

   -63.7242 -37.9374 -37.7897 -37.7747 -14.6467 -14.5707  -7.7055  -7.4965
    -6.3749  -5.8248  -5.3160  -4.7341  -3.0467  -0.7106   0.0557   0.1089
     1.3876

          k = 0.2000 0.5774 0.0000 (  8180 PWs)   bands (ev):

   -63.7230 -37.9442 -37.7975 -37.7725 -14.5606 -14.5267  -7.7497  -7.6216
    -6.4453  -5.7489  -5.3474  -4.8755  -2.9338  -0.7027   0.1389   0.1686
     1.4212

          k = 0.2667 0.4619 0.0000 (  8186 PWs)   bands (ev):

   -63.7240 -37.9226 -37.8069 -37.7745 -14.6416 -14.5631  -7.5390  -7.4980
    -6.2342  -5.8721  -5.7151  -4.7092  -3.0436  -0.7628  -0.0335   0.0864
     1.4879

          k = 0.2667 0.5389 0.0000 (  8188 PWs)   bands (ev):

   -63.7221 -37.9186 -37.8346 -37.7707 -14.5058 -14.4892  -7.7053  -7.4266
    -6.3888  -5.9527  -5.7305  -4.9580  -2.8374  -0.8331  -0.0747   0.2931
     1.6186

          k = 0.3333 0.5774 0.0000 (  8220 PWs)   bands (ev):

   -63.7213 -37.8964 -37.8661 -37.7694 -14.4591 -14.4553  -7.7845  -7.1570
    -6.6018  -6.1442  -5.6419  -5.0896  -2.7289  -0.9302  -0.1463   0.3995
     1.7142

     the Fermi energy is    -2.6004 ev

!    total energy              =    -496.67383054 Ry
     Harris-Foulkes estimate   =    -496.67383054 Ry
     estimated scf accuracy    <          1.6E-12 Ry

     total all-electron energy =     -9695.005217 Ry

     The total energy is the sum of the following terms:

     one-electron contribution =   -2065.55602766 Ry
     hartree contribution      =    1033.73332267 Ry
     xc contribution           =     -42.41853038 Ry
     ewald contribution        =     884.50187953 Ry
     one-center paw contrib.   =    -306.93950179 Ry
     smearing contrib. (-TS)   =       0.00502710 Ry

     convergence has been achieved in  13 iterations

     Forces acting on atoms (Ry/au):


     negative rho (up, down):  7.845E-04 0.000E+00
     atom    1 type  1   force =     0.00000000    0.00000000    0.00000000
     atom    2 type  2   force =     0.00000000    0.00000000    0.05955373
     atom    3 type  2   force =     0.00000000    0.00000000   -0.05955373

     Total force =     0.084222     Total SCF correction =     0.000001

     number of scf cycles    =   3
     number of bfgs steps    =   2

     energy   old            =    -496.6526749977 Ry
     energy   new            =    -496.6738305366 Ry

     CASE: energy  _new < energy  _old

     new trust radius        =       0.2028512772 bohr
     new conv_thr            =            6.0E-11 Ry


ATOMIC_POSITIONS (crystal)
Mo       0.000000000   0.000000000   0.000000000
S        0.333333000   0.666667000   0.951314533
S        0.333333000   0.666667000   0.048685467



     Writing output data file MoS2_a603.save
     Check: negative starting charge=   -0.000749
     NEW-OLD atomic charge density approx. for the potential
     Check: negative starting charge=   -0.000762

     negative rho (up, down):  8.044E-04 0.000E+00

     total cpu time spent up to now is       52.2 secs

     per-process dynamical memory:    26.2 Mb

     Self-consistent Calculation

     iteration #  1     ecut=    40.00 Ry     beta=0.30
     Davidson diagonalization with overlap
     ethr =  1.00E-06,  avg # of iterations =  6.9

     negative rho (up, down):  8.036E-04 0.000E+00

     total cpu time spent up to now is       55.5 secs

     total energy              =    -496.68114827 Ry
     Harris-Foulkes estimate   =    -496.69020444 Ry
     estimated scf accuracy    <       0.00678867 Ry

     iteration #  2     ecut=    40.00 Ry     beta=0.30
     Davidson diagonalization with overlap
     ethr =  2.61E-05,  avg # of iterations =  2.3

     negative rho (up, down):  8.041E-04 0.000E+00

     total cpu time spent up to now is       56.4 secs

     total energy              =    -496.68218357 Ry
     Harris-Foulkes estimate   =    -496.68384334 Ry
     estimated scf accuracy    <       0.00645011 Ry

     iteration #  3     ecut=    40.00 Ry     beta=0.30
     Davidson diagonalization with overlap
     ethr =  2.48E-05,  avg # of iterations =  1.7

     negative rho (up, down):  8.005E-04 0.000E+00

     total cpu time spent up to now is       57.2 secs

     total energy              =    -496.68289981 Ry
     Harris-Foulkes estimate   =    -496.68296280 Ry
     estimated scf accuracy    <       0.00032887 Ry

     iteration #  4     ecut=    40.00 Ry     beta=0.30
     Davidson diagonalization with overlap
     ethr =  1.26E-06,  avg # of iterations =  2.6

     negative rho (up, down):  8.005E-04 0.000E+00

     total cpu time spent up to now is       58.2 secs

     total energy              =    -496.68294079 Ry
     Harris-Foulkes estimate   =    -496.68296077 Ry
     estimated scf accuracy    <       0.00008462 Ry

     iteration #  5     ecut=    40.00 Ry     beta=0.30
     Davidson diagonalization with overlap
     ethr =  3.25E-07,  avg # of iterations =  2.0

     negative rho (up, down):  8.010E-04 0.000E+00

     total cpu time spent up to now is       59.1 secs

     total energy              =    -496.68295367 Ry
     Harris-Foulkes estimate   =    -496.68295203 Ry
     estimated scf accuracy    <       0.00000545 Ry

     iteration #  6     ecut=    40.00 Ry     beta=0.30
     Davidson diagonalization with overlap
     ethr =  2.10E-08,  avg # of iterations =  2.8

     negative rho (up, down):  8.008E-04 0.000E+00

     total cpu time spent up to now is       60.1 secs

     total energy              =    -496.68295450 Ry
     Harris-Foulkes estimate   =    -496.68295472 Ry
     estimated scf accuracy    <       0.00000148 Ry

     iteration #  7     ecut=    40.00 Ry     beta=0.30
     Davidson diagonalization with overlap
     ethr =  5.69E-09,  avg # of iterations =  1.0

     negative rho (up, down):  8.009E-04 0.000E+00

     total cpu time spent up to now is       60.9 secs

     total energy              =    -496.68295429 Ry
     Harris-Foulkes estimate   =    -496.68295456 Ry
     estimated scf accuracy    <       0.00000088 Ry

     iteration #  8     ecut=    40.00 Ry     beta=0.30
     Davidson diagonalization with overlap
     ethr =  3.39E-09,  avg # of iterations =  2.0

     negative rho (up, down):  8.009E-04 0.000E+00

     total cpu time spent up to now is       61.9 secs

     total energy              =    -496.68295450 Ry
     Harris-Foulkes estimate   =    -496.68295453 Ry
     estimated scf accuracy    <       0.00000014 Ry

     iteration #  9     ecut=    40.00 Ry     beta=0.30
     Davidson diagonalization with overlap
     ethr =  5.25E-10,  avg # of iterations =  2.0

     negative rho (up, down):  8.009E-04 0.000E+00

     total cpu time spent up to now is       62.8 secs

     total energy              =    -496.68295449 Ry
     Harris-Foulkes estimate   =    -496.68295451 Ry
     estimated scf accuracy    <       0.00000005 Ry

     iteration # 10     ecut=    40.00 Ry     beta=0.30
     Davidson diagonalization with overlap
     ethr =  1.73E-10,  avg # of iterations =  2.1

     negative rho (up, down):  8.010E-04 0.000E+00

     total cpu time spent up to now is       63.7 secs

     total energy              =    -496.68295450 Ry
     Harris-Foulkes estimate   =    -496.68295450 Ry
     estimated scf accuracy    <          5.8E-09 Ry

     iteration # 11     ecut=    40.00 Ry     beta=0.30
     Davidson diagonalization with overlap
     ethr =  2.24E-11,  avg # of iterations =  2.1

     negative rho (up, down):  8.010E-04 0.000E+00

     total cpu time spent up to now is       64.7 secs

     total energy              =    -496.68295450 Ry
     Harris-Foulkes estimate   =    -496.68295450 Ry
     estimated scf accuracy    <          4.5E-09 Ry

     iteration # 12     ecut=    40.00 Ry     beta=0.30
     Davidson diagonalization with overlap
     ethr =  1.73E-11,  avg # of iterations =  2.0

     negative rho (up, down):  8.011E-04 0.000E+00

     total cpu time spent up to now is       65.6 secs

     End of self-consistent calculation

          k = 0.0000 0.0000 0.0000 (  7993 PWs)   bands (ev):

   -63.7261 -37.8399 -37.6593 -37.6593 -16.9255 -15.6010  -8.4475  -5.4917
    -5.4917  -4.5526  -4.3652  -4.3651  -2.7878  -0.0649  -0.0649   0.1816
     0.1816

          k = 0.0000 0.0770 0.0000 (  8017 PWs)   bands (ev):

   -63.7245 -37.8367 -37.6756 -37.6630 -16.8603 -15.5745  -8.3726  -5.6390
    -5.4227  -4.9514  -4.4716  -4.0641  -2.8223  -0.1607  -0.0025   0.0518
     0.1069

          k = 0.0000 0.1540 0.0000 (  8051 PWs)   bands (ev):

   -63.7201 -37.8277 -37.7211 -37.6734 -16.6713 -15.4979  -8.1694  -6.0113
    -5.4651  -5.2247  -4.7429  -3.8873  -2.9620  -0.3591  -0.2752  -0.0838
     0.3447

          k = 0.0000 0.2309 0.0000 (  8059 PWs)   bands (ev):

   -63.7135 -37.8144 -37.7876 -37.6886 -16.3784 -15.3794  -7.9233  -6.4431
    -5.9932  -5.0855  -4.9259  -3.9664  -3.2572  -0.5959  -0.3155  -0.1648
     0.6987

          k = 0.0000 0.3079 0.0000 (  8080 PWs)   bands (ev):

   -63.7060 -37.8629 -37.7991 -37.7061 -16.0158 -15.2340  -7.8482  -6.7088
    -6.5152  -5.4223  -4.5754  -4.1964  -3.6117  -0.6106  -0.5131   0.1699
     1.0184

          k = 0.0000 0.3849 0.0000 (  8104 PWs)   bands (ev):

   -63.6988 -37.9342 -37.7844 -37.7227 -15.6347 -15.0837  -8.0771  -6.9925
    -6.7516  -5.7050  -4.4273  -4.2397  -3.7851  -0.6259  -0.4720   0.5736
     1.2559

          k = 0.0000 0.4619 0.0000 (  8112 PWs)   bands (ev):

   -63.6931 -37.9895 -37.7728 -37.7356 -15.3053 -14.9573  -8.3782  -7.3644
    -6.8154  -5.9058  -4.5877  -3.9857  -3.6752  -0.6479  -0.2765   0.8977
     1.4031

          k = 0.0000 0.5389 0.0000 (  8130 PWs)   bands (ev):

   -63.6900 -38.0195 -37.7666 -37.7426 -15.1095 -14.8841  -8.5687  -7.5696
    -6.8980  -6.0095  -4.6656  -3.8539  -3.4913  -0.6280  -0.1212   1.0630
     1.4711

          k = 0.0667 0.1155 0.0000 (  8038 PWs)   bands (ev):

   -63.7215 -37.8306 -37.7059 -37.6706 -16.7332 -15.5229  -8.2327  -5.8960
    -5.3062  -5.2919  -4.7088  -3.8730  -2.9095  -0.2878  -0.2618  -0.0335
     0.2763

          k = 0.0667 0.1925 0.0000 (  8059 PWs)   bands (ev):

   -63.7160 -37.8194 -37.7605 -37.6848 -16.4920 -15.4251  -7.9998  -6.2906
    -5.7497  -5.1011  -5.0566  -3.8017  -3.1310  -0.5516  -0.3282  -0.2405
     0.6320

          k = 0.0667 0.2694 0.0000 (  8075 PWs)   bands (ev):

   -63.7090 -37.8295 -37.8051 -37.7031 -16.1634 -15.2923  -7.8172  -6.6287
    -6.2480  -5.4737  -4.7725  -3.9442  -3.4636  -0.7079  -0.3976  -0.1274
     0.9876

          k = 0.0667 0.3464 0.0000 (  8088 PWs)   bands (ev):

   -63.7016 -37.9008 -37.7902 -37.7220 -15.7894 -15.1426  -7.9122  -6.7690
    -6.7218  -5.7418  -4.5334  -4.1985  -3.6946  -0.7273  -0.4289   0.2418
     1.2592

          k = 0.0667 0.4234 0.0000 (  8102 PWs)   bands (ev):

   -63.6951 -37.9624 -37.7770 -37.7384 -15.4301 -15.0015  -8.1938  -7.2275
    -6.7440  -5.9088  -4.4424  -4.3759  -3.6369  -0.6650  -0.3407   0.6380
     1.4004

          k = 0.0667 0.5004 0.0000 (  8111 PWs)   bands (ev):

   -63.6908 -38.0039 -37.7681 -37.7495 -15.1625 -14.8989  -8.4362  -7.5406
    -6.8367  -5.9977  -4.6077  -4.2388  -3.4382  -0.6123  -0.1732   0.9676
     1.3954

          k = 0.0667 0.5774 0.0000 (  8126 PWs)   bands (ev):

   -63.6892 -38.0185 -37.7649 -37.7535 -15.0621 -14.8611  -8.5292  -7.6517
    -6.8896  -6.0253  -4.6655  -4.1814  -3.3311  -0.6040  -0.0715   1.1491
     1.3162

          k = 0.1333 0.2309 0.0000 (  8090 PWs)   bands (ev):

   -63.7100 -37.8151 -37.8073 -37.7046 -16.2144 -15.3122  -7.8094  -6.5820
    -6.0585  -5.6403  -4.8666  -3.7660  -3.4009  -0.7544  -0.3573  -0.3116
     1.0140

          k = 0.1333 0.3079 0.0000 (  8089 PWs)   bands (ev):

   -63.7031 -37.8758 -37.7933 -37.7285 -15.8721 -15.1731  -7.7896  -6.6837
    -6.5455  -5.9593  -4.7900  -3.9160  -3.6212  -0.8475  -0.3623  -0.0996
     1.3302

          k = 0.1333 0.3849 0.0000 (  8097 PWs)   bands (ev):

   -63.6965 -37.9329 -37.7799 -37.7518 -15.5145 -15.0284  -7.9809  -7.1023
    -6.6393  -6.0481  -4.8605  -4.1887  -3.6107  -0.7408  -0.3242   0.2399
     1.5088

          k = 0.1333 0.4619 0.0000 (  8110 PWs)   bands (ev):

   -63.6914 -37.9771 -37.7701 -37.7693 -15.2084 -14.9058  -8.1947  -7.5375
    -6.7032  -6.0414  -4.8758  -4.4668  -3.4308  -0.5998  -0.2065   0.5865
     1.5322

          k = 0.1333 0.5389 0.0000 (  8152 PWs)   bands (ev):

   -63.6885 -38.0011 -37.7802 -37.7636 -15.0283 -14.8346  -8.3220  -7.7735
    -6.8143  -6.0076  -4.8388  -4.6455  -3.2418  -0.6342   0.0245   0.8362
     1.4577

          k = 0.2000 0.3464 0.0000 (  8106 PWs)   bands (ev):

   -63.6970 -37.9189 -37.7808 -37.7602 -15.5443 -15.0374  -7.8826  -7.0386
    -6.5763  -6.1370  -5.0828  -4.0597  -3.6107  -0.7813  -0.3083   0.0548
     1.5673

          k = 0.2000 0.4234 0.0000 (  8139 PWs)   bands (ev):

   -63.6917 -37.9530 -37.7910 -37.7700 -15.2350 -14.9080  -7.9892  -7.5377
    -6.5206  -6.0979  -5.4152  -4.3343  -3.4590  -0.6140  -0.2080   0.2786
     1.6856

          k = 0.2000 0.5004 0.0000 (  8161 PWs)   bands (ev):

   -63.6881 -37.9745 -37.8135 -37.7626 -15.0095 -14.8129  -8.0367  -7.8803
    -6.6599  -5.9819  -5.5492  -4.6143  -3.2238  -0.7219   0.1315   0.4606
     1.7226

          k = 0.2000 0.5774 0.0000 (  8180 PWs)   bands (ev):

   -63.6868 -37.9818 -37.8218 -37.7601 -14.9262 -14.7777  -8.0413  -8.0013
    -6.7646  -5.9135  -5.5664  -4.7417  -3.0915  -0.8293   0.3256   0.5291
     1.7265

          k = 0.2667 0.4619 0.0000 (  8186 PWs)   bands (ev):

   -63.6879 -37.9589 -37.8316 -37.7623 -15.0037 -14.8045  -7.9221  -7.8881
    -6.4768  -5.9771  -5.9720  -4.5967  -3.2238  -0.7657   0.1742   0.3137
     1.8368

          k = 0.2667 0.5389 0.0000 (  8188 PWs)   bands (ev):

   -63.6858 -37.9553 -37.8606 -37.7581 -14.8719 -14.7438  -8.1394  -7.7138
    -6.6857  -6.1960  -5.8097  -4.8362  -2.9824  -1.0188   0.3230   0.5310
     1.9390

          k = 0.3333 0.5774 0.0000 (  8220 PWs)   bands (ev):

   -63.6851 -37.9349 -37.8909 -37.7566 -14.8228 -14.7180  -8.2345  -7.4086
    -6.8968  -6.4183  -5.6964  -4.9669  -2.8486  -1.1884   0.2657   0.7070
     2.0337

     the Fermi energy is    -1.2079 ev

!    total energy              =    -496.68295450 Ry
     Harris-Foulkes estimate   =    -496.68295450 Ry
     estimated scf accuracy    <          4.9E-11 Ry

     total all-electron energy =     -9695.014341 Ry

     The total energy is the sum of the following terms:

     one-electron contribution =   -2097.06186298 Ry
     hartree contribution      =    1049.43089876 Ry
     xc contribution           =     -42.57474711 Ry
     ewald contribution        =     900.46641516 Ry
     one-center paw contrib.   =    -306.95133020 Ry
     smearing contrib. (-TS)   =       0.00767188 Ry

     convergence has been achieved in  12 iterations

     Forces acting on atoms (Ry/au):


     negative rho (up, down):  8.011E-04 0.000E+00
     atom    1 type  1   force =     0.00000000    0.00000000    0.00000000
     atom    2 type  2   force =     0.00000000    0.00000000   -0.00753525
     atom    3 type  2   force =     0.00000000    0.00000000    0.00753525

     Total force =     0.010656     Total SCF correction =     0.000000

     number of scf cycles    =   4
     number of bfgs steps    =   3

     energy   old            =    -496.6738305366 Ry
     energy   new            =    -496.6829544997 Ry

     CASE: energy  _new < energy  _old

     new trust radius        =       0.0227836931 bohr
     new conv_thr            =            7.5E-12 Ry


ATOMIC_POSITIONS (crystal)
Mo       0.000000000   0.000000000   0.000000000
S        0.333333000   0.666667000   0.950936694
S        0.333333000   0.666667000   0.049063306



     Writing output data file MoS2_a603.save
     Check: negative starting charge=   -0.000762
     NEW-OLD atomic charge density approx. for the potential
     Check: negative starting charge=   -0.000761

     negative rho (up, down):  7.992E-04 0.000E+00

     total cpu time spent up to now is       67.0 secs

     per-process dynamical memory:    26.2 Mb

     Self-consistent Calculation

     iteration #  1     ecut=    40.00 Ry     beta=0.30
     Davidson diagonalization with overlap
     ethr =  1.00E-06,  avg # of iterations =  4.0

     negative rho (up, down):  7.990E-04 0.000E+00

     total cpu time spent up to now is       68.5 secs

     total energy              =    -496.68308584 Ry
     Harris-Foulkes estimate   =    -496.68808993 Ry
     estimated scf accuracy    <       0.00011020 Ry

     iteration #  2     ecut=    40.00 Ry     beta=0.30
     Davidson diagonalization with overlap
     ethr =  4.24E-07,  avg # of iterations =  2.6

     negative rho (up, down):  7.989E-04 0.000E+00

     total cpu time spent up to now is       69.4 secs

     total energy              =    -496.68310374 Ry
     Harris-Foulkes estimate   =    -496.68313286 Ry
     estimated scf accuracy    <       0.00011557 Ry

     iteration #  3     ecut=    40.00 Ry     beta=0.30
     Davidson diagonalization with overlap
     ethr =  4.24E-07,  avg # of iterations =  1.6

     negative rho (up, down):  7.991E-04 0.000E+00

     total cpu time spent up to now is       70.3 secs

     total energy              =    -496.68311550 Ry
     Harris-Foulkes estimate   =    -496.68311729 Ry
     estimated scf accuracy    <       0.00000477 Ry

     iteration #  4     ecut=    40.00 Ry     beta=0.30
     Davidson diagonalization with overlap
     ethr =  1.83E-08,  avg # of iterations =  2.8

     negative rho (up, down):  7.989E-04 0.000E+00

     total cpu time spent up to now is       71.3 secs

     total energy              =    -496.68311613 Ry
     Harris-Foulkes estimate   =    -496.68311653 Ry
     estimated scf accuracy    <       0.00000131 Ry

     iteration #  5     ecut=    40.00 Ry     beta=0.30
     Davidson diagonalization with overlap
     ethr =  5.05E-09,  avg # of iterations =  2.0

     negative rho (up, down):  7.988E-04 0.000E+00

     total cpu time spent up to now is       72.2 secs

     total energy              =    -496.68311635 Ry
     Harris-Foulkes estimate   =    -496.68311637 Ry
     estimated scf accuracy    <       0.00000015 Ry

     iteration #  6     ecut=    40.00 Ry     beta=0.30
     Davidson diagonalization with overlap
     ethr =  5.84E-10,  avg # of iterations =  1.8

     negative rho (up, down):  7.987E-04 0.000E+00

     total cpu time spent up to now is       73.1 secs

     total energy              =    -496.68311637 Ry
     Harris-Foulkes estimate   =    -496.68311637 Ry
     estimated scf accuracy    <       0.00000001 Ry

     iteration #  7     ecut=    40.00 Ry     beta=0.30
     Davidson diagonalization with overlap
     ethr =  5.47E-11,  avg # of iterations =  2.4

     negative rho (up, down):  7.987E-04 0.000E+00

     total cpu time spent up to now is       74.1 secs

     total energy              =    -496.68311637 Ry
     Harris-Foulkes estimate   =    -496.68311637 Ry
     estimated scf accuracy    <          6.3E-10 Ry

     iteration #  8     ecut=    40.00 Ry     beta=0.30
     Davidson diagonalization with overlap
     ethr =  2.42E-12,  avg # of iterations =  2.9

     negative rho (up, down):  7.986E-04 0.000E+00

     total cpu time spent up to now is       75.1 secs

     total energy              =    -496.68311637 Ry
     Harris-Foulkes estimate   =    -496.68311637 Ry
     estimated scf accuracy    <          1.9E-10 Ry

     iteration #  9     ecut=    40.00 Ry     beta=0.30
     Davidson diagonalization with overlap
     ethr =  7.47E-13,  avg # of iterations =  2.3

     negative rho (up, down):  7.986E-04 0.000E+00

     total cpu time spent up to now is       76.1 secs

     total energy              =    -496.68311637 Ry
     Harris-Foulkes estimate   =    -496.68311637 Ry
     estimated scf accuracy    <          4.5E-11 Ry

     iteration # 10     ecut=    40.00 Ry     beta=0.30
     Davidson diagonalization with overlap
     ethr =  1.73E-13,  avg # of iterations =  2.1

     negative rho (up, down):  7.986E-04 0.000E+00

     total cpu time spent up to now is       77.1 secs

     End of self-consistent calculation

          k = 0.0000 0.0000 0.0000 (  7993 PWs)   bands (ev):

   -63.7340 -37.8460 -37.6600 -37.6600 -16.8844 -15.6013  -8.4122  -5.4217
    -5.4217  -4.5821  -4.3136  -4.3136  -2.8297  -0.0715  -0.0714   0.1465
     0.1465

          k = 0.0000 0.0770 0.0000 (  8017 PWs)   bands (ev):

   -63.7325 -37.8428 -37.6761 -37.6637 -16.8194 -15.5741  -8.3368  -5.5706
    -5.3532  -4.9427  -4.4199  -4.0526  -2.8617  -0.1684  -0.0384   0.0431
     0.0731

          k = 0.0000 0.1540 0.0000 (  8051 PWs)   bands (ev):

   -63.7281 -37.8339 -37.7212 -37.6740 -16.6311 -15.4952  -8.1314  -5.9482
    -5.4458  -5.1568  -4.6910  -3.8921  -2.9937  -0.3974  -0.2856  -0.1140
     0.3298

          k = 0.0000 0.2309 0.0000 (  8059 PWs)   bands (ev):

   -63.7215 -37.8208 -37.7871 -37.6891 -16.3389 -15.3733  -7.8796  -6.3916
    -5.9697  -5.0331  -4.8609  -3.9826  -3.2769  -0.6365  -0.3403  -0.1798
     0.6747

          k = 0.0000 0.3079 0.0000 (  8080 PWs)   bands (ev):

   -63.7141 -37.8617 -37.8057 -37.7065 -15.9768 -15.2234  -7.7949  -6.6758
    -6.4920  -5.3695  -4.5154  -4.2191  -3.6196  -0.6493  -0.5304   0.1483
     0.9846

          k = 0.0000 0.3849 0.0000 (  8104 PWs)   bands (ev):

   -63.7069 -37.9324 -37.7912 -37.7229 -15.5956 -15.0683  -8.0260  -6.9730
    -6.7267  -5.6518  -4.4526  -4.1869  -3.7846  -0.6337  -0.5032   0.5455
     1.2135

          k = 0.0000 0.4619 0.0000 (  8112 PWs)   bands (ev):

   -63.7013 -37.9872 -37.7798 -37.7357 -15.2654 -14.9375  -8.3373  -7.3495
    -6.7880  -5.8522  -4.6137  -3.9410  -3.6725  -0.6458  -0.2956   0.8655
     1.3546

          k = 0.0000 0.5389 0.0000 (  8130 PWs)   bands (ev):

   -63.6982 -38.0169 -37.7737 -37.7427 -15.0689 -14.8617  -8.5353  -7.5577
    -6.8668  -5.9557  -4.6918  -3.8146  -3.4907  -0.6192  -0.1285   1.0295
     1.4197

          k = 0.0667 0.1155 0.0000 (  8038 PWs)   bands (ev):

   -63.7295 -37.8368 -37.7062 -37.6712 -16.6927 -15.5210  -8.1956  -5.8310
    -5.2898  -5.2235  -4.6581  -3.8720  -2.9437  -0.2995  -0.2968  -0.0647
     0.2629

          k = 0.0667 0.1925 0.0000 (  8059 PWs)   bands (ev):

   -63.7240 -37.8258 -37.7602 -37.6853 -16.4523 -15.4203  -7.9588  -6.2336
    -5.7278  -5.0529  -4.9910  -3.8101  -3.1550  -0.5916  -0.3396  -0.2676
     0.6100

          k = 0.0667 0.2694 0.0000 (  8075 PWs)   bands (ev):

   -63.7170 -37.8286 -37.8117 -37.7034 -16.1243 -15.2835  -7.7674  -6.5875
    -6.2229  -5.4287  -4.7127  -3.9595  -3.4743  -0.7460  -0.4203  -0.1435
     0.9551

          k = 0.0667 0.3464 0.0000 (  8088 PWs)   bands (ev):

   -63.7097 -37.8993 -37.7969 -37.7222 -15.7504 -15.1292  -7.8578  -6.7444
    -6.6953  -5.6983  -4.4856  -4.2180  -3.6895  -0.7553  -0.4483   0.2190
     1.2173

          k = 0.0667 0.4234 0.0000 (  8102 PWs)   bands (ev):

   -63.7033 -37.9603 -37.7839 -37.7385 -15.3907 -14.9835  -8.1477  -7.2061
    -6.7185  -5.8649  -4.4648  -4.3415  -3.6208  -0.6777  -0.3554   0.6086
     1.3527

          k = 0.0667 0.5004 0.0000 (  8111 PWs)   bands (ev):

   -63.6989 -38.0015 -37.7751 -37.7495 -15.1222 -14.8774  -8.4000  -7.5223
    -6.8070  -5.9526  -4.6322  -4.2107  -3.4230  -0.6109  -0.1813   0.9337
     1.3461

          k = 0.0667 0.5774 0.0000 (  8126 PWs)   bands (ev):

   -63.6974 -38.0159 -37.7720 -37.7535 -15.0214 -14.8382  -8.4972  -7.6347
    -6.8574  -5.9796  -4.6907  -4.1554  -3.3180  -0.5965  -0.0759   1.1170
     1.2636

          k = 0.1333 0.2309 0.0000 (  8090 PWs)   bands (ev):

   -63.7181 -37.8143 -37.8138 -37.7049 -16.1753 -15.3042  -7.7614  -6.5372
    -6.0327  -5.5995  -4.8077  -3.7780  -3.4124  -0.7929  -0.3811  -0.3245
     0.9809

          k = 0.1333 0.3079 0.0000 (  8089 PWs)   bands (ev):

   -63.7112 -37.8745 -37.8000 -37.7287 -15.8332 -15.1608  -7.7341  -6.6544
    -6.5117  -5.9301  -4.7454  -3.9316  -3.6148  -0.8817  -0.3796  -0.1171
     1.2866

          k = 0.1333 0.3849 0.0000 (  8097 PWs)   bands (ev):

   -63.7047 -37.9311 -37.7868 -37.7518 -15.4755 -15.0117  -7.9301  -7.0688
    -6.6152  -6.0219  -4.8287  -4.2071  -3.5914  -0.7706  -0.3288   0.2149
     1.4596

          k = 0.1333 0.4619 0.0000 (  8110 PWs)   bands (ev):

   -63.6995 -37.9749 -37.7763 -37.7699 -15.1686 -14.8852  -8.1544  -7.5064
    -6.6760  -6.0149  -4.8501  -4.4878  -3.4100  -0.6151  -0.2066   0.5521
     1.4847

          k = 0.1333 0.5389 0.0000 (  8152 PWs)   bands (ev):

   -63.6967 -37.9987 -37.7800 -37.7707 -14.9877 -14.8116  -8.2898  -7.7441
    -6.7822  -5.9798  -4.8166  -4.6689  -3.2232  -0.6286   0.0170   0.7920
     1.4176

          k = 0.2000 0.3464 0.0000 (  8106 PWs)   bands (ev):

   -63.7052 -37.9172 -37.7877 -37.7601 -15.5054 -15.0211  -7.8298  -6.9972
    -6.5526  -6.1205  -5.0520  -4.0773  -3.5910  -0.8160  -0.3103   0.0319
     1.5170

          k = 0.2000 0.4234 0.0000 (  8139 PWs)   bands (ev):

   -63.6999 -37.9510 -37.7907 -37.7770 -15.1954 -14.8879  -7.9450  -7.4963
    -6.4969  -6.0853  -5.3888  -4.3537  -3.4367  -0.6410  -0.2014   0.2458
     1.6366

          k = 0.2000 0.5004 0.0000 (  8161 PWs)   bands (ev):

   -63.6963 -37.9723 -37.8130 -37.7698 -14.9691 -14.7901  -8.0025  -7.8399
    -6.6306  -5.9701  -5.5263  -4.6355  -3.2032  -0.7169   0.1189   0.4171
     1.6804

          k = 0.2000 0.5774 0.0000 (  8180 PWs)   bands (ev):

   -63.6950 -37.9795 -37.8212 -37.7672 -14.8855 -14.7538  -8.0121  -7.9614
    -6.7314  -5.9012  -5.5451  -4.7642  -3.0729  -0.8129   0.3062   0.4806
     1.6884

          k = 0.2667 0.4619 0.0000 (  8186 PWs)   bands (ev):

   -63.6961 -37.9568 -37.8310 -37.7695 -14.9635 -14.7818  -7.8776  -7.8518
    -6.4524  -5.9665  -5.9511  -4.6170  -3.2028  -0.7610   0.1595   0.2707
     1.7930

          k = 0.2667 0.5389 0.0000 (  8188 PWs)   bands (ev):

   -63.6941 -37.9531 -37.8598 -37.7653 -14.8311 -14.7195  -8.0939  -7.6853
    -6.6555  -6.1716  -5.8067  -4.8573  -2.9651  -0.9956   0.2734   0.5025
     1.8994

          k = 0.3333 0.5774 0.0000 (  8220 PWs)   bands (ev):

   -63.6933 -37.9325 -37.8903 -37.7638 -14.7818 -14.6933  -8.1875  -7.3853
    -6.8664  -6.3898  -5.6961  -4.9881  -2.8343  -1.1573   0.2142   0.6712
     1.9945

     the Fermi energy is    -1.2189 ev

!    total energy              =    -496.68311637 Ry
     Harris-Foulkes estimate   =    -496.68311637 Ry
     estimated scf accuracy    <          5.4E-12 Ry

     total all-electron energy =     -9695.014503 Ry

     The total energy is the sum of the following terms:

     one-electron contribution =   -2093.52471592 Ry
     hartree contribution      =    1047.66450813 Ry
     xc contribution           =     -42.55580818 Ry
     ewald contribution        =     898.67509437 Ry
     one-center paw contrib.   =    -306.94981642 Ry
     smearing contrib. (-TS)   =       0.00762165 Ry

     convergence has been achieved in  10 iterations

     Forces acting on atoms (Ry/au):


     negative rho (up, down):  7.986E-04 0.000E+00
     atom    1 type  1   force =     0.00000000    0.00000000    0.00000000
     atom    2 type  2   force =     0.00000000    0.00000000    0.00038380
     atom    3 type  2   force =     0.00000000    0.00000000   -0.00038380

     Total force =     0.000543     Total SCF correction =     0.000000

     number of scf cycles    =   5
     number of bfgs steps    =   4

     energy   old            =    -496.6829544997 Ry
     energy   new            =    -496.6831163691 Ry

     CASE: energy  _new < energy  _old

     new trust radius        =       0.0011042246 bohr
     new conv_thr            =            1.0E-12 Ry


ATOMIC_POSITIONS (crystal)
Mo       0.000000000   0.000000000   0.000000000
S        0.333333000   0.666667000   0.950955006
S        0.333333000   0.666667000   0.049044994



     Writing output data file MoS2_a603.save
     Check: negative starting charge=   -0.000761
     NEW-OLD atomic charge density approx. for the potential
     Check: negative starting charge=   -0.000761

     negative rho (up, down):  7.987E-04 0.000E+00

     total cpu time spent up to now is       79.1 secs

     per-process dynamical memory:    26.2 Mb

     Self-consistent Calculation

     iteration #  1     ecut=    40.00 Ry     beta=0.30
     Davidson diagonalization with overlap
     ethr =  1.00E-06,  avg # of iterations =  2.0

     Threshold (ethr) on eigenvalues was too large:
     Diagonalizing with lowered threshold

     Davidson diagonalization with overlap
     ethr =  1.01E-09,  avg # of iterations =  2.9

     negative rho (up, down):  7.987E-04 0.000E+00

     total cpu time spent up to now is       80.9 secs

     total energy              =    -496.68311674 Ry
     Harris-Foulkes estimate   =    -496.68290537 Ry
     estimated scf accuracy    <       0.00000025 Ry

     iteration #  2     ecut=    40.00 Ry     beta=0.30
     Davidson diagonalization with overlap
     ethr =  9.60E-10,  avg # of iterations =  2.5

     negative rho (up, down):  7.987E-04 0.000E+00

     total cpu time spent up to now is       81.8 secs

     total energy              =    -496.68311678 Ry
     Harris-Foulkes estimate   =    -496.68311684 Ry
     estimated scf accuracy    <       0.00000024 Ry

     iteration #  3     ecut=    40.00 Ry     beta=0.30
     Davidson diagonalization with overlap
     ethr =  9.31E-10,  avg # of iterations =  1.6

     negative rho (up, down):  7.987E-04 0.000E+00

     total cpu time spent up to now is       82.6 secs

     total energy              =    -496.68311680 Ry
     Harris-Foulkes estimate   =    -496.68311681 Ry
     estimated scf accuracy    <       0.00000001 Ry

     iteration #  4     ecut=    40.00 Ry     beta=0.30
     Davidson diagonalization with overlap
     ethr =  4.19E-11,  avg # of iterations =  2.5

     negative rho (up, down):  7.987E-04 0.000E+00

     total cpu time spent up to now is       83.6 secs

     total energy              =    -496.68311681 Ry
     Harris-Foulkes estimate   =    -496.68311681 Ry
     estimated scf accuracy    <          1.5E-09 Ry

     iteration #  5     ecut=    40.00 Ry     beta=0.30
     Davidson diagonalization with overlap
     ethr =  5.77E-12,  avg # of iterations =  1.9

     negative rho (up, down):  7.987E-04 0.000E+00

     total cpu time spent up to now is       84.5 secs

     total energy              =    -496.68311681 Ry
     Harris-Foulkes estimate   =    -496.68311681 Ry
     estimated scf accuracy    <          2.1E-10 Ry

     iteration #  6     ecut=    40.00 Ry     beta=0.30
     Davidson diagonalization with overlap
     ethr =  8.01E-13,  avg # of iterations =  2.0

     negative rho (up, down):  7.987E-04 0.000E+00

     total cpu time spent up to now is       85.4 secs

     total energy              =    -496.68311681 Ry
     Harris-Foulkes estimate   =    -496.68311681 Ry
     estimated scf accuracy    <          1.7E-11 Ry

     iteration #  7     ecut=    40.00 Ry     beta=0.30
     Davidson diagonalization with overlap
     ethr =  1.00E-13,  avg # of iterations =  2.2

     negative rho (up, down):  7.987E-04 0.000E+00

     total cpu time spent up to now is       86.4 secs

     total energy              =    -496.68311681 Ry
     Harris-Foulkes estimate   =    -496.68311681 Ry
     estimated scf accuracy    <          1.2E-11 Ry

     iteration #  8     ecut=    40.00 Ry     beta=0.30
     Davidson diagonalization with overlap
     ethr =  1.00E-13,  avg # of iterations =  1.0

     negative rho (up, down):  7.987E-04 0.000E+00

     total cpu time spent up to now is       87.2 secs

     End of self-consistent calculation

          k = 0.0000 0.0000 0.0000 (  7993 PWs)   bands (ev):

   -63.7336 -37.8457 -37.6599 -37.6599 -16.8863 -15.6013  -8.4139  -5.4251
    -5.4251  -4.5807  -4.3161  -4.3161  -2.8277  -0.0711  -0.0711   0.1482
     0.1482

          k = 0.0000 0.0770 0.0000 (  8017 PWs)   bands (ev):

   -63.7321 -37.8425 -37.6760 -37.6636 -16.8214 -15.5741  -8.3385  -5.5739
    -5.3565  -4.9431  -4.4224  -4.0533  -2.8598  -0.1680  -0.0366   0.0435
     0.0748

          k = 0.0000 0.1540 0.0000 (  8051 PWs)   bands (ev):

   -63.7277 -37.8336 -37.7212 -37.6740 -16.6330 -15.4954  -8.1332  -5.9512
    -5.4467  -5.1600  -4.6935  -3.8919  -2.9921  -0.3955  -0.2851  -0.1126
     0.3305

          k = 0.0000 0.2309 0.0000 (  8059 PWs)   bands (ev):

   -63.7212 -37.8205 -37.7871 -37.6891 -16.3408 -15.3736  -7.8816  -6.3940
    -5.9708  -5.0357  -4.8641  -3.9819  -3.2760  -0.6345  -0.3391  -0.1791
     0.6759

          k = 0.0000 0.3079 0.0000 (  8080 PWs)   bands (ev):

   -63.7137 -37.8618 -37.8054 -37.7064 -15.9787 -15.2239  -7.7974  -6.6774
    -6.4931  -5.3720  -4.5183  -4.2180  -3.6192  -0.6475  -0.5295   0.1494
     0.9863

          k = 0.0000 0.3849 0.0000 (  8104 PWs)   bands (ev):

   -63.7065 -37.9325 -37.7909 -37.7229 -15.5974 -15.0690  -8.0285  -6.9739
    -6.7279  -5.6543  -4.4514  -4.1895  -3.7846  -0.6333  -0.5017   0.5469
     1.2155

          k = 0.0000 0.4619 0.0000 (  8112 PWs)   bands (ev):

   -63.7009 -37.9873 -37.7795 -37.7357 -15.2673 -14.9384  -8.3392  -7.3503
    -6.7893  -5.8548  -4.6125  -3.9432  -3.6726  -0.6458  -0.2946   0.8670
     1.3570

          k = 0.0000 0.5389 0.0000 (  8130 PWs)   bands (ev):

   -63.6978 -38.0171 -37.7733 -37.7427 -15.0708 -14.8628  -8.5370  -7.5583
    -6.8683  -5.9583  -4.6905  -3.8165  -3.4907  -0.6196  -0.1281   1.0311
     1.4222

          k = 0.0667 0.1155 0.0000 (  8038 PWs)   bands (ev):

   -63.7291 -37.8365 -37.7061 -37.6711 -16.6947 -15.5211  -8.1973  -5.8341
    -5.2905  -5.2268  -4.6606  -3.8721  -2.9421  -0.2977  -0.2963  -0.0632
     0.2636

          k = 0.0667 0.1925 0.0000 (  8059 PWs)   bands (ev):

   -63.7236 -37.8255 -37.7602 -37.6853 -16.4542 -15.4206  -7.9608  -6.2364
    -5.7288  -5.0552  -4.9942  -3.8098  -3.1538  -0.5896  -0.3391  -0.2662
     0.6110

          k = 0.0667 0.2694 0.0000 (  8075 PWs)   bands (ev):

   -63.7166 -37.8286 -37.8114 -37.7034 -16.1261 -15.2840  -7.7698  -6.5895
    -6.2241  -5.4309  -4.7155  -3.9588  -3.4737  -0.7441  -0.4192  -0.1427
     0.9566

          k = 0.0667 0.3464 0.0000 (  8088 PWs)   bands (ev):

   -63.7093 -37.8993 -37.7966 -37.7222 -15.7523 -15.1299  -7.8604  -6.7456
    -6.6966  -5.7004  -4.4879  -4.2171  -3.6897  -0.7539  -0.4474   0.2201
     1.2193

          k = 0.0667 0.4234 0.0000 (  8102 PWs)   bands (ev):

   -63.7029 -37.9604 -37.7836 -37.7385 -15.3925 -14.9844  -8.1500  -7.2071
    -6.7198  -5.8670  -4.4637  -4.3431  -3.6216  -0.6771  -0.3547   0.6100
     1.3550

          k = 0.0667 0.5004 0.0000 (  8111 PWs)   bands (ev):

   -63.6985 -38.0016 -37.7748 -37.7495 -15.1241 -14.8784  -8.4018  -7.5232
    -6.8084  -5.9548  -4.6310  -4.2120  -3.4238  -0.6109  -0.1809   0.9354
     1.3485

          k = 0.0667 0.5774 0.0000 (  8126 PWs)   bands (ev):

   -63.6970 -38.0160 -37.7717 -37.7535 -15.0233 -14.8394  -8.4987  -7.6356
    -6.8590  -5.9818  -4.6895  -4.1566  -3.3186  -0.5969  -0.0757   1.1186
     1.2661

          k = 0.1333 0.2309 0.0000 (  8090 PWs)   bands (ev):

   -63.7177 -37.8144 -37.8135 -37.7049 -16.1772 -15.3046  -7.7637  -6.5393
    -6.0339  -5.6015  -4.8105  -3.7775  -3.4118  -0.7910  -0.3799  -0.3239
     0.9825

          k = 0.1333 0.3079 0.0000 (  8089 PWs)   bands (ev):

   -63.7108 -37.8746 -37.7997 -37.7286 -15.8351 -15.1614  -7.7367  -6.6558
    -6.5133  -5.9315  -4.7476  -3.9309  -3.6151  -0.8800  -0.3788  -0.1163
     1.2887

          k = 0.1333 0.3849 0.0000 (  8097 PWs)   bands (ev):

   -63.7043 -37.9312 -37.7864 -37.7518 -15.4773 -15.0125  -7.9326  -7.0704
    -6.6163  -6.0232  -4.8302  -4.2062  -3.5924  -0.7691  -0.3286   0.2161
     1.4620

          k = 0.1333 0.4619 0.0000 (  8110 PWs)   bands (ev):

   -63.6991 -37.9750 -37.7760 -37.7699 -15.1705 -14.8862  -8.1564  -7.5079
    -6.6773  -6.0162  -4.8513  -4.4868  -3.4110  -0.6143  -0.2066   0.5538
     1.4870

          k = 0.1333 0.5389 0.0000 (  8152 PWs)   bands (ev):

   -63.6963 -37.9988 -37.7800 -37.7704 -14.9896 -14.8127  -8.2914  -7.7455
    -6.7838  -5.9812  -4.8176  -4.6678  -3.2241  -0.6288   0.0174   0.7942
     1.4195

          k = 0.2000 0.3464 0.0000 (  8106 PWs)   bands (ev):

   -63.7048 -37.9173 -37.7874 -37.7601 -15.5072 -15.0219  -7.8323  -6.9992
    -6.5537  -6.1213  -5.0534  -4.0765  -3.5920  -0.8143  -0.3102   0.0331
     1.5195

          k = 0.2000 0.4234 0.0000 (  8139 PWs)   bands (ev):

   -63.6995 -37.9511 -37.7907 -37.7767 -15.1973 -14.8889  -7.9472  -7.4983
    -6.4980  -6.0859  -5.3901  -4.3528  -3.4378  -0.6397  -0.2017   0.2474
     1.6389

          k = 0.2000 0.5004 0.0000 (  8161 PWs)   bands (ev):

   -63.6959 -37.9724 -37.8130 -37.7694 -14.9711 -14.7912  -8.0041  -7.8419
    -6.6320  -5.9707  -5.5274  -4.6344  -3.2042  -0.7171   0.1195   0.4192
     1.6825

          k = 0.2000 0.5774 0.0000 (  8180 PWs)   bands (ev):

   -63.6946 -37.9796 -37.8212 -37.7669 -14.8874 -14.7550  -8.0135  -7.9634
    -6.7330  -5.9019  -5.5461  -4.7631  -3.0738  -0.8136   0.3072   0.4829
     1.6902

          k = 0.2667 0.4619 0.0000 (  8186 PWs)   bands (ev):

   -63.6957 -37.9569 -37.8310 -37.7691 -14.9654 -14.7829  -7.8797  -7.8535
    -6.4535  -5.9667  -5.9523  -4.6160  -3.2038  -0.7612   0.1602   0.2728
     1.7951

          k = 0.2667 0.5389 0.0000 (  8188 PWs)   bands (ev):

   -63.6937 -37.9532 -37.8599 -37.7649 -14.8330 -14.7207  -8.0961  -7.6867
    -6.6570  -6.1727  -5.8069  -4.8563  -2.9659  -0.9967   0.2758   0.5039
     1.9013

          k = 0.3333 0.5774 0.0000 (  8220 PWs)   bands (ev):

   -63.6929 -37.9326 -37.8903 -37.7634 -14.7838 -14.6944  -8.1898  -7.3864
    -6.8679  -6.3911  -5.6961  -4.9871  -2.8350  -1.1588   0.2167   0.6729
     1.9964

     the Fermi energy is    -1.2183 ev

!    total energy              =    -496.68311681 Ry
     Harris-Foulkes estimate   =    -496.68311681 Ry
     estimated scf accuracy    <          3.3E-13 Ry

     total all-electron energy =     -9695.014503 Ry

     The total energy is the sum of the following terms:

     one-electron contribution =   -2093.69623019 Ry
     hartree contribution      =    1047.75017506 Ry
     xc contribution           =     -42.55672174 Ry
     ewald contribution        =     898.76192556 Ry
     one-center paw contrib.   =    -306.94988917 Ry
     smearing contrib. (-TS)   =       0.00762367 Ry

     convergence has been achieved in   8 iterations

     Forces acting on atoms (Ry/au):


     negative rho (up, down):  7.987E-04 0.000E+00
     atom    1 type  1   force =     0.00000000    0.00000000    0.00000000
     atom    2 type  2   force =     0.00000000    0.00000000    0.00000586
     atom    3 type  2   force =     0.00000000    0.00000000   -0.00000586

     Total force =     0.000008     Total SCF correction =     0.000001
     SCF correction compared to forces is large: reduce conv_thr to get better values

     bfgs converged in   6 scf cycles and   5 bfgs steps
     (criteria: energy <  1.0E-04, force <  1.0E-03)

     End of BFGS Geometry Optimization

     Final energy   =    -496.6831168053 Ry
Begin final coordinates

ATOMIC_POSITIONS (crystal)
Mo       0.000000000   0.000000000   0.000000000
S        0.333333000   0.666667000   0.950955006
S        0.333333000   0.666667000   0.049044994
End final coordinates



     Writing output data file MoS2_a603.save
 
     init_run     :      3.73s CPU      3.84s WALL (       1 calls)
     electrons    :     65.96s CPU     73.61s WALL (       6 calls)
     update_pot   :      2.18s CPU      2.67s WALL (       5 calls)
     forces       :      1.70s CPU      1.73s WALL (       6 calls)

     Called by init_run:
     wfcinit      :      0.24s CPU      0.27s WALL (       1 calls)
     potinit      :      0.16s CPU      0.18s WALL (       1 calls)

     Called by electrons:
     c_bands      :     45.17s CPU     48.96s WALL (      71 calls)
     sum_band     :      9.88s CPU      9.99s WALL (      71 calls)
     v_of_rho     :      1.81s CPU      1.86s WALL (      76 calls)
     newd         :      3.70s CPU      3.86s WALL (      76 calls)
     mix_rho      :      0.20s CPU      0.20s WALL (      71 calls)

     Called by c_bands:
     init_us_2    :      0.46s CPU      0.43s WALL (    4158 calls)
     cegterg      :     43.42s CPU     44.33s WALL (    1917 calls)

     Called by *egterg:
     h_psi        :     26.58s CPU     27.00s WALL (    6347 calls)
     s_psi        :      0.79s CPU      0.69s WALL (    6347 calls)
     g_psi        :      0.16s CPU      0.14s WALL (    4403 calls)
     cdiaghg      :     10.84s CPU     11.14s WALL (    6158 calls)

     Called by h_psi:
     add_vuspsi   :      0.71s CPU      0.73s WALL (    6347 calls)

     General routines
     calbec       :      1.51s CPU      1.48s WALL (    8561 calls)
     fft          :      1.76s CPU      1.76s WALL (    1267 calls)
     ffts         :      0.02s CPU      0.03s WALL (     147 calls)
     fftw         :     24.65s CPU     25.12s WALL (  196213 calls)
     interpolate  :      0.22s CPU      0.24s WALL (     147 calls)
     davcio       :      0.00s CPU      0.01s WALL (      27 calls)
 
     Parallel routines
     fft_scatter  :     12.79s CPU     13.01s WALL (  197627 calls)

     PAW routines
     PAW_pot      :      4.30s CPU      4.99s WALL (      81 calls)
     PAW_symme    :      0.03s CPU      0.03s WALL (     152 calls)
 
     PWSCF        :  1m15.36s CPU     1m29.16s WALL

 
   This run was terminated on:  14: 9:33   8Jul2015            

=------------------------------------------------------------------------------=
   JOB DONE.
=------------------------------------------------------------------------------=
Application 13843100 resources: utime ~2059s, stime ~38s, Rss ~48020, inblocks ~665908, outblocks ~912802
