
             +---------------------------------------------------+
             |                                                   |
             |                   WANNIER90                       |
             |                                                   |
             +---------------------------------------------------+
             |                                                   |
             |        Welcome to the Maximally-Localized         |
             |        Generalized Wannier Functions code         |
             |            http://www.wannier.org                 |
             |                                                   |
             |  Wannier90 v2.0 Authors:                          |
             |    Arash A. Mostofi  (Imperial College London)    |
             |    Giovanni Pizzi    (EPFL)                       |
             |    Ivo Souza         (Universidad del Pais Vasco) |
             |    Jonathan R. Yates (University of Oxford)       |
             |                                                   |
             |  Wannier90 Contributors:                          |
             |    Young-Su Lee      (KIST, S. Korea)             |
             |    Matthew Shelley   (Imperial College London)    |
             |    Nicolas Poilvert  (Harvard)                    |
             |                                                   |
             |  Wannier77 Authors:                               |
             |    Nicola Marzari    (EPFL)                       |
             |    Ivo Souza         (Universidad del Pais Vasco) |
             |    David Vanderbilt  (Rutgers University)         |
             |                                                   |
             |  Please cite                                      |
             |                                                   |
             |  [ref] "Wannier90: A Tool for Obtaining Maximally |
             |         Localised Wannier Functions"              |
             |        A. A. Mostofi, J. R. Yates, Y.-S. Lee,     |
             |        I. Souza, D. Vanderbilt and N. Marzari     |
             |        Comput. Phys. Commun. 178, 685 (2008)      |
             |                                                   |
             |  in any publications arising from the use of      |
             |  this code. For the method please cite            |
             |                                                   |
             |  [ref] "Maximally Localized Generalised Wannier   |
             |         Functions for Composite Energy Bands"     |
             |         N. Marzari and D. Vanderbilt              |
             |         Phys. Rev. B 56 12847 (1997)              |
             |                                                   |
             |  [ref] "Maximally Localized Wannier Functions     |
             |         for Entangled Energy Bands"               |
             |         I. Souza, N. Marzari and D. Vanderbilt    |
             |         Phys. Rev. B 65 035109 (2001)             |
             |                                                   |
             |                                                   |
             | Copyright (c) 1996-2013                           |
             |        A. A. Mostofi, J. R. Yates, Y.-S. Lee,     |
             |        I. Souza, D. Vanderbilt and N. Marzari     |
             |                                                   |
             |        Release: 2.0    14th October 2013          |
             |                                                   |
             | This program is free software; you can            |
             | redistribute it and/or modify it under the terms  |
             | of the GNU General Public License as published by |
             | the Free Software Foundation; either version 2 of |
             | the License, or (at your option) any later version|
             |                                                   |
             | This program is distributed in the hope that it   |
             | will be useful, but WITHOUT ANY WARRANTY; without |
             | even the implied warranty of MERCHANTABILITY or   |
             | FITNESS FOR A PARTICULAR PURPOSE. See the GNU     |
             | General Public License for more details.          |
             |                                                   |
             | You should have received a copy of the GNU General|
             | Public License along with this program; if not,   |
             | write to the Free Software Foundation, Inc.,      |
             | 675 Mass Ave, Cambridge, MA 02139, USA.           |
             |                                                   |
             +---------------------------------------------------+
             |    Execution started on  8Jul2015 at 17:16:20     |
             +---------------------------------------------------+
 
 ******************************************************************************
 * -> Using CODATA 2006 constant values                                       *
 *    (http://physics.nist.gov/cuu/Constants/index.html)                      *
 * -> Using Bohr value from CODATA                                            *
 ******************************************************************************
 

                                    ------
                                    SYSTEM
                                    ------

                              Lattice Vectors (Ang)
                    a_1     3.193584   0.000000   0.000000
                    a_2    -1.596792   2.765725   0.000000
                    a_3     0.000000   0.000000  31.909386

                   Unit Cell Volume:     281.84211  (Ang^3)

                        Reciprocal-Space Vectors (Ang^-1)
                    b_1     1.967440   1.135902  -0.000000
                    b_2     0.000000   2.271804   0.000000
                    b_3     0.000000  -0.000000   0.196907
  
 *----------------------------------------------------------------------------*
 |   Site       Fractional Coordinate          Cartesian Coordinate (Ang)     |
 +----------------------------------------------------------------------------+
 | Mo   1   0.00000   0.00000   0.00000   |    0.00000   0.00000   0.00000    |
 | S    1   0.33333   0.66667   0.95100   |   -0.00000   1.84382  30.34583    |
 | S    2   0.33333   0.66667   0.04900   |   -0.00000   1.84382   1.56356    |
 *----------------------------------------------------------------------------*
  
                                ------------
                                K-POINT GRID
                                ------------
  
             Grid size = 15 x 15 x  1      Total points =  225
  
  
 *---------------------------------- MAIN ------------------------------------*
 |  Number of Wannier Functions               :                 5             |
 |  Number of input Bloch states              :                 5             |
 |  Output verbosity (1=low, 5=high)          :                 1             |
 |  Timing Level (1=low, 5=high)              :                 1             |
 |  Optimisation (0=memory, 3=speed)          :                 3             |
 |  Length Unit                               :               Ang             |
 |  Post-processing setup (write *.nnkp)      :                 F             |
 |  Using Gamma-only branch of algorithms     :                 F             |
 *----------------------------------------------------------------------------*
 *------------------------------- WANNIERISE ---------------------------------*
 |  Total number of iterations                :               100             |
 |  Number of CG steps before reset           :                 5             |
 |  Trial step length for line search         :             2.000             |
 |  Convergence tolerence                     :         0.100E-09             |
 |  Convergence window                        :                -1             |
 |  Iterations between writing output         :                 1             |
 |  Iterations between backing up to disk     :               100             |
 |  Write r^2_nm to file                      :                 F             |
 |  Write xyz WF centres to file              :                 F             |
 |  Write on-site energies <0n|H|0n> to file  :                 F             |
 |  Use guiding centre to control phases      :                 T             |
 |  Use phases for initial projections        :                 F             |
 |  Iterations before starting guiding centres:                 0             |
 |  Iterations between using guiding centres  :                 1             |
 *----------------------------------------------------------------------------*
 *-------------------------------- PLOTTING ----------------------------------*
 |  Plotting interpolated bandstructure       :                 T             |
 |   Number of K-path sections                :                 7             |
 |   Divisions along first K-path section     :               100             |
 |   Output format                            :           gnuplot             |
 |   Output mode                              :               s-k             |
 *----------------------------------------------------------------------------*
 |   K-space path sections:                                                   |
 |    From:  G    0.000  0.000  0.000     To:  S    0.250  0.000  0.000       |
 |    From:  S    0.250  0.000  0.000     To:  M    0.500  0.000  0.000       |
 |    From:  M    0.500  0.000  0.000     To:  K    0.330  0.330  0.000       |
 |    From:  K    0.330  0.330  0.000     To:  L    0.170  0.170  0.000       |
 |    From:  L    0.170  0.170  0.000     To:  G    0.000  0.000  0.000       |
 |    From:  G    0.000  0.000  0.000     To:  D    0.000  0.000  0.250       |
 |    From:  D    0.000  0.000  0.250     To:  A    0.000  0.000  0.500       |
 *----------------------------------------------------------------------------*
 |  Plotting Hamiltonian in WF basis          :                 T             |
 *----------------------------------------------------------------------------*
 Time to read parameters        0.012 (sec)

 *---------------------------------- K-MESH ----------------------------------*
 +----------------------------------------------------------------------------+
 |                    Distance to Nearest-Neighbour Shells                    |
 |                    ------------------------------------                    |
 |          Shell             Distance (Ang^-1)          Multiplicity         |
 |          -----             -----------------          ------------         |
 |             1                   0.151454                      6            |
 |             2                   0.196907                      2            |
 |             3                   0.248416                     12            |
 |             4                   0.262325                      6            |
 |             5                   0.302907                      6            |
 |             6                   0.328005                     12            |
 |             7                   0.361283                     12            |
 |             8                   0.393814                      2            |
 |             9                   0.400709                     12            |
 |            10                   0.421933                     12            |
 |            11                   0.446475                     24            |
 |            12                   0.454361                      6            |
 +----------------------------------------------------------------------------+
 | The b-vectors are chosen automatically                                     |
 | The following shells are used:   1,  2                                     |
 +----------------------------------------------------------------------------+
 |                        Shell   # Nearest-Neighbours                        |
 |                        -----   --------------------                        |
 |                          1               6                                 |
 |                          2               2                                 |
 +----------------------------------------------------------------------------+
 | Completeness relation is fully satisfied [Eq. (B1), PRB 56, 12847 (1997)]  |
 +----------------------------------------------------------------------------+
 |                  b_k Vectors (Ang^-1) and Weights (Ang^2)                  |
 |                  ----------------------------------------                  |
 |            No.         b_k(x)      b_k(y)      b_k(z)        w_b           |
 |            ---        --------------------------------     --------        |
 |             1         0.000000    0.151454    0.000000    14.531805        |
 |             2         0.131163    0.075727    0.000000    14.531805        |
 |             3         0.000000   -0.151454    0.000000    14.531805        |
 |             4         0.131163   -0.075727    0.000000    14.531805        |
 |             5        -0.131163   -0.075727    0.000000    14.531805        |
 |             6        -0.131163    0.075727    0.000000    14.531805        |
 |             7         0.000000    0.000000    0.196907    12.895766        |
 |             8         0.000000    0.000000   -0.196907    12.895766        |
 +----------------------------------------------------------------------------+
 |                           b_k Directions (Ang^-1)                          |
 |                           -----------------------                          |
 |            No.           x           y           z                         |
 |            ---        --------------------------------                     |
 |             1         0.000000    0.151454    0.000000                     |
 |             2         0.131163    0.075727    0.000000                     |
 |             3         0.131163   -0.075727    0.000000                     |
 |             4         0.000000    0.000000    0.196907                     |
 +----------------------------------------------------------------------------+
  
 *============================================================================*
 |                              MEMORY ESTIMATE                               |
 |         Maximum RAM allocated during each phase of the calculation         |
 *============================================================================*
 |                            Wannierise:            2.16 Mb                  |
 *----------------------------------------------------------------------------*
  
 Starting a new Wannier90 calculation ...

 Time to get kmesh              0.208 (sec)

 Reading overlaps from MoS2.mmn    :  Created on  8Jul2015 at 17:11:44

 Reading projections from MoS2.amn :  Created on  8Jul2015 at 17:11:34

 Time to read overlaps          0.084 (sec)

 Writing checkpoint file MoS2.chk... done


 *------------------------------- WANNIERISE ---------------------------------*
 +--------------------------------------------------------------------+<-- CONV
 | Iter  Delta Spread     RMS Gradient      Spread (Ang^2)      Time  |<-- CONV
 +--------------------------------------------------------------------+<-- CONV

 ------------------------------------------------------------------------------
 Initial State
  WF centre and spread    1  (  0.000008, -0.000016, -0.000000 )     4.69713011
  WF centre and spread    2  ( -0.000001, -0.505176,  0.000000 )     5.31878157
  WF centre and spread    3  ( -0.000000,  0.509117, -0.000000 )     5.31980265
  WF centre and spread    4  (  0.000006, -0.259099, -0.000000 )     5.21796276
  WF centre and spread    5  (  0.000001,  0.261022, -0.000000 )     5.22497586
  Sum of centres and spreads (  0.000014,  0.005848,  0.000000 )    25.77865296

      0     0.258E+02     0.0000000000       25.7786528948       0.31  <-- CONV
        O_D=      0.3481798 O_OD=      2.9540934 O_TOT=     25.7786529 <-- SPRD
 ------------------------------------------------------------------------------
 Cycle:      1
  WF centre and spread    1  (  0.000008, -0.000066, -0.000000 )     4.66219241
  WF centre and spread    2  ( -0.000001, -0.507272,  0.000000 )     5.28639475
  WF centre and spread    3  ( -0.000000,  0.511126, -0.000000 )     5.28689132
  WF centre and spread    4  (  0.000007, -0.257430, -0.000000 )     5.12878739
  WF centre and spread    5  (  0.000001,  0.258226, -0.000000 )     5.13343487
  Sum of centres and spreads (  0.000015,  0.004584,  0.000000 )    25.49770074

      1    -0.281E+00     0.6414193030       25.4977006750       0.32  <-- CONV
        O_D=      0.2692051 O_OD=      2.7521158 O_TOT=     25.4977007 <-- SPRD
 Delta: O_D= -0.7897463E-01 O_OD= -0.2019776E+00 O_TOT= -0.2809522E+00 <-- DLTA
 ------------------------------------------------------------------------------
 Cycle:      2
  WF centre and spread    1  (  0.000008, -0.000120, -0.000000 )     4.65605573
  WF centre and spread    2  ( -0.000001, -0.509377,  0.000000 )     5.26344666
  WF centre and spread    3  ( -0.000000,  0.513142, -0.000000 )     5.26364195
  WF centre and spread    4  (  0.000007, -0.255021, -0.000000 )     5.09518197
  WF centre and spread    5  (  0.000001,  0.255738, -0.000000 )     5.09823594
  Sum of centres and spreads (  0.000015,  0.004362,  0.000000 )    25.37656225

      2    -0.121E+00     0.4400581767       25.3765621906       0.33  <-- CONV
        O_D=      0.2285831 O_OD=      2.6715994 O_TOT=     25.3765622 <-- SPRD
 Delta: O_D= -0.4062208E-01 O_OD= -0.8051641E-01 O_TOT= -0.1211385E+00 <-- DLTA
 ------------------------------------------------------------------------------
 Cycle:      3
  WF centre and spread    1  (  0.000008, -0.000252, -0.000000 )     4.66390575
  WF centre and spread    2  ( -0.000002, -0.511033,  0.000000 )     5.25057042
  WF centre and spread    3  ( -0.000000,  0.514734, -0.000000 )     5.25066985
  WF centre and spread    4  (  0.000007, -0.253250, -0.000000 )     5.07898642
  WF centre and spread    5  (  0.000001,  0.254070, -0.000000 )     5.08122030
  Sum of centres and spreads (  0.000015,  0.004269,  0.000000 )    25.32535274

      3    -0.512E-01     0.2837295585       25.3253526808       0.34  <-- CONV
        O_D=      0.2111386 O_OD=      2.6378343 O_TOT=     25.3253527 <-- SPRD
 Delta: O_D= -0.1744446E-01 O_OD= -0.3376505E-01 O_TOT= -0.5120951E-01 <-- DLTA
 ------------------------------------------------------------------------------
 Cycle:      4
  WF centre and spread    1  (  0.000008, -0.000451, -0.000000 )     4.68124050
  WF centre and spread    2  ( -0.000002, -0.512565,  0.000000 )     5.24067729
  WF centre and spread    3  ( -0.000000,  0.516214, -0.000000 )     5.24074613
  WF centre and spread    4  (  0.000007, -0.251863, -0.000000 )     5.06517295
  WF centre and spread    5  (  0.000001,  0.252877, -0.000000 )     5.06700461
  Sum of centres and spreads (  0.000015,  0.004212,  0.000000 )    25.29484149

      4    -0.305E-01     0.2031625258       25.2948414303       0.35  <-- CONV
        O_D=      0.2017723 O_OD=      2.6166894 O_TOT=     25.2948414 <-- SPRD
 Delta: O_D= -0.9366319E-02 O_OD= -0.2114493E-01 O_TOT= -0.3051125E-01 <-- DLTA
 ------------------------------------------------------------------------------
 Cycle:      5
  WF centre and spread    1  (  0.000008, -0.000697, -0.000000 )     4.70290804
  WF centre and spread    2  ( -0.000002, -0.513852,  0.000000 )     5.23340375
  WF centre and spread    3  ( -0.000000,  0.517463, -0.000000 )     5.23346080
  WF centre and spread    4  (  0.000007, -0.251020, -0.000000 )     5.05126642
  WF centre and spread    5  (  0.000001,  0.252331, -0.000000 )     5.05287520
  Sum of centres and spreads (  0.000015,  0.004226,  0.000000 )    25.27391422

      5    -0.209E-01     0.1683102799       25.2739141511       0.36  <-- CONV
        O_D=      0.1945524 O_OD=      2.6029820 O_TOT=     25.2739142 <-- SPRD
 Delta: O_D= -0.7219905E-02 O_OD= -0.1370737E-01 O_TOT= -0.2092728E-01 <-- DLTA
 ------------------------------------------------------------------------------
 Cycle:      6
  WF centre and spread    1  (  0.000008, -0.000944, -0.000000 )     4.72698172
  WF centre and spread    2  ( -0.000002, -0.514711,  0.000000 )     5.22964429
  WF centre and spread    3  ( -0.000000,  0.518304, -0.000000 )     5.22969869
  WF centre and spread    4  (  0.000007, -0.250707, -0.000000 )     5.03645386
  WF centre and spread    5  (  0.000001,  0.252305, -0.000000 )     5.03801292
  Sum of centres and spreads (  0.000015,  0.004247,  0.000000 )    25.26079148

      6    -0.131E-01     0.1391253716       25.2607914110       0.37  <-- CONV
        O_D=      0.1888653 O_OD=      2.5955463 O_TOT=     25.2607914 <-- SPRD
 Delta: O_D= -0.5687070E-02 O_OD= -0.7435671E-02 O_TOT= -0.1312274E-01 <-- DLTA
 ------------------------------------------------------------------------------
 Cycle:      7
  WF centre and spread    1  (  0.000008, -0.000980, -0.000000 )     4.73108469
  WF centre and spread    2  ( -0.000002, -0.514745,  0.000000 )     5.22935065
  WF centre and spread    3  ( -0.000000,  0.518341, -0.000000 )     5.22938999
  WF centre and spread    4  (  0.000007, -0.250758, -0.000000 )     5.03239744
  WF centre and spread    5  (  0.000001,  0.252403, -0.000000 )     5.03399080
  Sum of centres and spreads (  0.000015,  0.004261,  0.000000 )    25.25621357

      7    -0.458E-02     0.1053390634       25.2562135054       0.38  <-- CONV
        O_D=      0.1874519 O_OD=      2.5923818 O_TOT=     25.2562135 <-- SPRD
 Delta: O_D= -0.1413405E-02 O_OD= -0.3164500E-02 O_TOT= -0.4577906E-02 <-- DLTA
 ------------------------------------------------------------------------------
 Cycle:      8
  WF centre and spread    1  (  0.000008, -0.001053, -0.000000 )     4.74001658
  WF centre and spread    2  ( -0.000002, -0.514824,  0.000000 )     5.22890284
  WF centre and spread    3  ( -0.000000,  0.518425, -0.000000 )     5.22891241
  WF centre and spread    4  (  0.000007, -0.250853, -0.000000 )     5.02687553
  WF centre and spread    5  (  0.000001,  0.252590, -0.000000 )     5.02851671
  Sum of centres and spreads (  0.000015,  0.004284,  0.000000 )    25.25322408

      8    -0.299E-02     0.0674912276       25.2532240106       0.39  <-- CONV
        O_D=      0.1858913 O_OD=      2.5909530 O_TOT=     25.2532240 <-- SPRD
 Delta: O_D= -0.1560615E-02 O_OD= -0.1428880E-02 O_TOT= -0.2989495E-02 <-- DLTA
 ------------------------------------------------------------------------------
 Cycle:      9
  WF centre and spread    1  (  0.000008, -0.001121, -0.000000 )     4.74650718
  WF centre and spread    2  ( -0.000002, -0.514912,  0.000000 )     5.22861944
  WF centre and spread    3  ( -0.000000,  0.518517, -0.000000 )     5.22860998
  WF centre and spread    4  (  0.000007, -0.250898, -0.000000 )     5.02329267
  WF centre and spread    5  (  0.000001,  0.252736, -0.000000 )     5.02487533
  Sum of centres and spreads (  0.000015,  0.004321,  0.000000 )    25.25190460

      9    -0.132E-02     0.0466229397       25.2519045387       0.40  <-- CONV
        O_D=      0.1851627 O_OD=      2.5903621 O_TOT=     25.2519045 <-- SPRD
 Delta: O_D= -0.7286117E-03 O_OD= -0.5908603E-03 O_TOT= -0.1319472E-02 <-- DLTA
 ------------------------------------------------------------------------------
 Cycle:     10
  WF centre and spread    1  (  0.000008, -0.001207, -0.000000 )     4.75252306
  WF centre and spread    2  ( -0.000002, -0.515044,  0.000000 )     5.22837926
  WF centre and spread    3  ( -0.000000,  0.518651, -0.000000 )     5.22836427
  WF centre and spread    4  (  0.000008, -0.250878, -0.000000 )     5.02017268
  WF centre and spread    5  (  0.000001,  0.252852, -0.000000 )     5.02152579
  Sum of centres and spreads (  0.000015,  0.004374,  0.000000 )    25.25096506

     10    -0.940E-03     0.0350904157       25.2509649964       0.41  <-- CONV
        O_D=      0.1847986 O_OD=      2.5897867 O_TOT=     25.2509650 <-- SPRD
 Delta: O_D= -0.3640961E-03 O_OD= -0.5754462E-03 O_TOT= -0.9395422E-03 <-- DLTA
 ------------------------------------------------------------------------------
 Cycle:     11
  WF centre and spread    1  (  0.000008, -0.001282, -0.000000 )     4.75708170
  WF centre and spread    2  ( -0.000002, -0.515179,  0.000000 )     5.22822968
  WF centre and spread    3  ( -0.000000,  0.518787, -0.000000 )     5.22822735
  WF centre and spread    4  (  0.000008, -0.250771, -0.000000 )     5.01795863
  WF centre and spread    5  (  0.000001,  0.252852, -0.000000 )     5.01892162
  Sum of centres and spreads (  0.000015,  0.004408,  0.000000 )    25.25041898

     11    -0.546E-03     0.0282993198       25.2504189139       0.42  <-- CONV
        O_D=      0.1846423 O_OD=      2.5893968 O_TOT=     25.2504189 <-- SPRD
 Delta: O_D= -0.1562507E-03 O_OD= -0.3898319E-03 O_TOT= -0.5460826E-03 <-- DLTA
 ------------------------------------------------------------------------------
 Cycle:     12
  WF centre and spread    1  (  0.000008, -0.001352, -0.000000 )     4.76131463
  WF centre and spread    2  ( -0.000002, -0.515321,  0.000000 )     5.22812471
  WF centre and spread    3  (  0.000000,  0.518930, -0.000000 )     5.22814376
  WF centre and spread    4  (  0.000008, -0.250592, -0.000000 )     5.01598273
  WF centre and spread    5  (  0.000001,  0.252769, -0.000000 )     5.01648207
  Sum of centres and spreads (  0.000015,  0.004434,  0.000000 )    25.25004789

     12    -0.371E-03     0.0228091485       25.2500478204       0.43  <-- CONV
        O_D=      0.1845234 O_OD=      2.5891446 O_TOT=     25.2500478 <-- SPRD
 Delta: O_D= -0.1189118E-03 O_OD= -0.2521816E-03 O_TOT= -0.3710935E-03 <-- DLTA
 ------------------------------------------------------------------------------
 Cycle:     13
  WF centre and spread    1  (  0.000008, -0.001358, -0.000000 )     4.76194806
  WF centre and spread    2  ( -0.000002, -0.515344,  0.000000 )     5.22811060
  WF centre and spread    3  (  0.000000,  0.518953, -0.000000 )     5.22813146
  WF centre and spread    4  (  0.000008, -0.250551, -0.000000 )     5.01562067
  WF centre and spread    5  (  0.000001,  0.252723, -0.000000 )     5.01608501
  Sum of centres and spreads (  0.000015,  0.004423,  0.000000 )    25.24989579

     13    -0.152E-03     0.0180586843       25.2498957303       0.44  <-- CONV
        O_D=      0.1845171 O_OD=      2.5889988 O_TOT=     25.2498957 <-- SPRD
 Delta: O_D= -0.6293599E-05 O_OD= -0.1457965E-03 O_TOT= -0.1520901E-03 <-- DLTA
 ------------------------------------------------------------------------------
 Cycle:     14
  WF centre and spread    1  (  0.000008, -0.001370, -0.000000 )     4.76327122
  WF centre and spread    2  ( -0.000002, -0.515395,  0.000000 )     5.22808703
  WF centre and spread    3  (  0.000000,  0.519004, -0.000000 )     5.22811141
  WF centre and spread    4  (  0.000008, -0.250459, -0.000000 )     5.01496770
  WF centre and spread    5  (  0.000000,  0.252627, -0.000000 )     5.01532176
  Sum of centres and spreads (  0.000015,  0.004406,  0.000000 )    25.24975912

     14    -0.137E-03     0.0139102324       25.2497590543       0.45  <-- CONV
        O_D=      0.1845238 O_OD=      2.5888555 O_TOT=     25.2497591 <-- SPRD
 Delta: O_D=  0.6636822E-05 O_OD= -0.1433129E-03 O_TOT= -0.1366760E-03 <-- DLTA
 ------------------------------------------------------------------------------
 Cycle:     15
  WF centre and spread    1  (  0.000008, -0.001382, -0.000000 )     4.76442841
  WF centre and spread    2  ( -0.000002, -0.515448,  0.000000 )     5.22807033
  WF centre and spread    3  (  0.000000,  0.519058, -0.000000 )     5.22809773
  WF centre and spread    4  (  0.000008, -0.250376, -0.000000 )     5.01443730
  WF centre and spread    5  (  0.000000,  0.252555, -0.000000 )     5.01464541
  Sum of centres and spreads (  0.000015,  0.004406,  0.000000 )    25.24967918

     15    -0.799E-04     0.0105322031       25.2496791131       0.46  <-- CONV
        O_D=      0.1845538 O_OD=      2.5887456 O_TOT=     25.2496791 <-- SPRD
 Delta: O_D=  0.3001625E-04 O_OD= -0.1099574E-03 O_TOT= -0.7994114E-04 <-- DLTA
 ------------------------------------------------------------------------------
 Cycle:     16
  WF centre and spread    1  (  0.000008, -0.001392, -0.000000 )     4.76561107
  WF centre and spread    2  ( -0.000002, -0.515505,  0.000000 )     5.22805688
  WF centre and spread    3  (  0.000000,  0.519116, -0.000000 )     5.22808741
  WF centre and spread    4  (  0.000008, -0.250317, -0.000000 )     5.01389945
  WF centre and spread    5  (  0.000000,  0.252513, -0.000000 )     5.01396605
  Sum of centres and spreads (  0.000015,  0.004414,  0.000000 )    25.24962086

     16    -0.583E-04     0.0086401099       25.2496207958       0.46  <-- CONV
        O_D=      0.1845875 O_OD=      2.5886535 O_TOT=     25.2496208 <-- SPRD
 Delta: O_D=  0.3370505E-04 O_OD= -0.9202236E-04 O_TOT= -0.5831731E-04 <-- DLTA
 ------------------------------------------------------------------------------
 Cycle:     17
  WF centre and spread    1  (  0.000008, -0.001400, -0.000000 )     4.76721205
  WF centre and spread    2  ( -0.000002, -0.515576,  0.000000 )     5.22804328
  WF centre and spread    3  (  0.000000,  0.519188, -0.000000 )     5.22807854
  WF centre and spread    4  (  0.000008, -0.250275, -0.000000 )     5.01316206
  WF centre and spread    5  (  0.000000,  0.252487, -0.000000 )     5.01306459
  Sum of centres and spreads (  0.000015,  0.004424,  0.000000 )    25.24956052

     17    -0.603E-04     0.0085719019       25.2495604580       0.48  <-- CONV
        O_D=      0.1846149 O_OD=      2.5885658 O_TOT=     25.2495605 <-- SPRD
 Delta: O_D=  0.2741402E-04 O_OD= -0.8775180E-04 O_TOT= -0.6033778E-04 <-- DLTA
 ------------------------------------------------------------------------------
 Cycle:     18
  WF centre and spread    1  (  0.000008, -0.001397, -0.000000 )     4.76899297
  WF centre and spread    2  ( -0.000002, -0.515647,  0.000000 )     5.22803284
  WF centre and spread    3  (  0.000000,  0.519261, -0.000000 )     5.22807419
  WF centre and spread    4  (  0.000008, -0.250268, -0.000000 )     5.01234190
  WF centre and spread    5  (  0.000000,  0.252486, -0.000000 )     5.01206302
  Sum of centres and spreads (  0.000015,  0.004435,  0.000000 )    25.24950492

     18    -0.556E-04     0.0081451304       25.2495048602       0.48  <-- CONV
        O_D=      0.1846225 O_OD=      2.5885026 O_TOT=     25.2495049 <-- SPRD
 Delta: O_D=  0.7637710E-05 O_OD= -0.6323550E-04 O_TOT= -0.5559779E-04 <-- DLTA
 ------------------------------------------------------------------------------
 Cycle:     19
  WF centre and spread    1  (  0.000008, -0.001389, -0.000000 )     4.76912858
  WF centre and spread    2  ( -0.000002, -0.515646,  0.000000 )     5.22803165
  WF centre and spread    3  (  0.000000,  0.519260, -0.000000 )     5.22807348
  WF centre and spread    4  (  0.000008, -0.250285, -0.000000 )     5.01226342
  WF centre and spread    5  (  0.000000,  0.252495, -0.000000 )     5.01197435
  Sum of centres and spreads (  0.000015,  0.004435,  0.000000 )    25.24947150

     19    -0.334E-04     0.0089374992       25.2494714339       0.50  <-- CONV
        O_D=      0.1846128 O_OD=      2.5884789 O_TOT=     25.2494714 <-- SPRD
 Delta: O_D= -0.9734530E-05 O_OD= -0.2369185E-04 O_TOT= -0.3342638E-04 <-- DLTA
 ------------------------------------------------------------------------------
 Cycle:     20
  WF centre and spread    1  (  0.000008, -0.001369, -0.000000 )     4.76939219
  WF centre and spread    2  ( -0.000002, -0.515645,  0.000000 )     5.22802969
  WF centre and spread    3  (  0.000000,  0.519259, -0.000000 )     5.22807253
  WF centre and spread    4  (  0.000008, -0.250328, -0.000000 )     5.01212560
  WF centre and spread    5  (  0.000000,  0.252517, -0.000000 )     5.01182504
  Sum of centres and spreads (  0.000015,  0.004435,  0.000000 )    25.24944505

     20    -0.264E-04     0.0058852678       25.2494449885       0.50  <-- CONV
        O_D=      0.1846002 O_OD=      2.5884651 O_TOT=     25.2494450 <-- SPRD
 Delta: O_D= -0.1265164E-04 O_OD= -0.1379375E-04 O_TOT= -0.2644539E-04 <-- DLTA
 ------------------------------------------------------------------------------
 Cycle:     21
  WF centre and spread    1  (  0.000008, -0.001337, -0.000000 )     4.76951639
  WF centre and spread    2  ( -0.000002, -0.515643,  0.000000 )     5.22802820
  WF centre and spread    3  (  0.000000,  0.519259, -0.000000 )     5.22807221
  WF centre and spread    4  (  0.000008, -0.250388, -0.000000 )     5.01205495
  WF centre and spread    5  (  0.000000,  0.252545, -0.000000 )     5.01175122
  Sum of centres and spreads (  0.000015,  0.004435,  0.000000 )    25.24942297

     21    -0.221E-04     0.0052419455       25.2494229086       0.52  <-- CONV
        O_D=      0.1845952 O_OD=      2.5884479 O_TOT=     25.2494229 <-- SPRD
 Delta: O_D= -0.4923719E-05 O_OD= -0.1715614E-04 O_TOT= -0.2207985E-04 <-- DLTA
 ------------------------------------------------------------------------------
 Cycle:     22
  WF centre and spread    1  (  0.000008, -0.001264, -0.000000 )     4.76927443
  WF centre and spread    2  ( -0.000002, -0.515644,  0.000000 )     5.22802712
  WF centre and spread    3  (  0.000000,  0.519261, -0.000000 )     5.22807367
  WF centre and spread    4  (  0.000008, -0.250505, -0.000000 )     5.01216566
  WF centre and spread    5  ( -0.000000,  0.252593, -0.000000 )     5.01184596
  Sum of centres and spreads (  0.000015,  0.004441,  0.000000 )    25.24938683

     22    -0.361E-04     0.0054407210       25.2493867685       0.52  <-- CONV
        O_D=      0.1846156 O_OD=      2.5883914 O_TOT=     25.2493868 <-- SPRD
 Delta: O_D=  0.2037010E-04 O_OD= -0.5651021E-04 O_TOT= -0.3614011E-04 <-- DLTA
 ------------------------------------------------------------------------------
 Cycle:     23
  WF centre and spread    1  (  0.000008, -0.001101, -0.000000 )     4.76841039
  WF centre and spread    2  ( -0.000002, -0.515655,  0.000000 )     5.22802812
  WF centre and spread    3  (  0.000001,  0.519275, -0.000000 )     5.22808126
  WF centre and spread    4  (  0.000008, -0.250728, -0.000000 )     5.01258922
  WF centre and spread    5  ( -0.000000,  0.252662, -0.000000 )     5.01220593
  Sum of centres and spreads (  0.000015,  0.004454,  0.000000 )    25.24931492

     23    -0.719E-04     0.0076614129       25.2493148537       0.53  <-- CONV
        O_D=      0.1846898 O_OD=      2.5882453 O_TOT=     25.2493149 <-- SPRD
 Delta: O_D=  0.7421078E-04 O_OD= -0.1461256E-03 O_TOT= -0.7191481E-04 <-- DLTA
 ------------------------------------------------------------------------------
 Cycle:     24
  WF centre and spread    1  (  0.000008, -0.000865, -0.000000 )     4.76730178
  WF centre and spread    2  ( -0.000003, -0.515680,  0.000000 )     5.22803208
  WF centre and spread    3  (  0.000001,  0.519305, -0.000000 )     5.22809558
  WF centre and spread    4  (  0.000009, -0.251003, -0.000000 )     5.01312153
  WF centre and spread    5  ( -0.000001,  0.252707, -0.000000 )     5.01266267
  Sum of centres and spreads (  0.000015,  0.004464,  0.000000 )    25.24921364

     24    -0.101E-03     0.0101896079       25.2492135792       0.54  <-- CONV
        O_D=      0.1847968 O_OD=      2.5880370 O_TOT=     25.2492136 <-- SPRD
 Delta: O_D=  0.1070048E-03 O_OD= -0.2082793E-03 O_TOT= -0.1012745E-03 <-- DLTA
 ------------------------------------------------------------------------------
 Cycle:     25
  WF centre and spread    1  (  0.000008, -0.000862, -0.000000 )     4.76754122
  WF centre and spread    2  ( -0.000003, -0.515686,  0.000000 )     5.22802881
  WF centre and spread    3  (  0.000001,  0.519310, -0.000000 )     5.22809144
  WF centre and spread    4  (  0.000009, -0.250984, -0.000000 )     5.01294885
  WF centre and spread    5  ( -0.000001,  0.252675, -0.000000 )     5.01251741
  Sum of centres and spreads (  0.000015,  0.004454,  0.000000 )    25.24912773

     25    -0.859E-04     0.0142203906       25.2491276697       0.55  <-- CONV
        O_D=      0.1847876 O_OD=      2.5879603 O_TOT=     25.2491277 <-- SPRD
 Delta: O_D= -0.9190134E-05 O_OD= -0.7671937E-04 O_TOT= -0.8590951E-04 <-- DLTA
 ------------------------------------------------------------------------------
 Cycle:     26
  WF centre and spread    1  (  0.000008, -0.000853, -0.000000 )     4.76793926
  WF centre and spread    2  ( -0.000003, -0.515697,  0.000000 )     5.22802466
  WF centre and spread    3  (  0.000001,  0.519320, -0.000000 )     5.22808507
  WF centre and spread    4  (  0.000009, -0.250944, -0.000000 )     5.01269922
  WF centre and spread    5  ( -0.000001,  0.252611, -0.000000 )     5.01231297
  Sum of centres and spreads (  0.000015,  0.004437,  0.000000 )    25.24906117

     26    -0.666E-04     0.0098235502       25.2490611026       0.56  <-- CONV
        O_D=      0.1847838 O_OD=      2.5878975 O_TOT=     25.2490611 <-- SPRD
 Delta: O_D= -0.3825467E-05 O_OD= -0.6274164E-04 O_TOT= -0.6656711E-04 <-- DLTA
 ------------------------------------------------------------------------------
 Cycle:     27
  WF centre and spread    1  (  0.000008, -0.000840, -0.000000 )     4.76807002
  WF centre and spread    2  ( -0.000003, -0.515706,  0.000000 )     5.22802341
  WF centre and spread    3  (  0.000001,  0.519328, -0.000000 )     5.22808124
  WF centre and spread    4  (  0.000009, -0.250914, -0.000000 )     5.01260577
  WF centre and spread    5  ( -0.000001,  0.252563, -0.000000 )     5.01224545
  Sum of centres and spreads (  0.000015,  0.004432,  0.000000 )    25.24902588

     27    -0.353E-04     0.0073060013       25.2490258167       0.57  <-- CONV
        O_D=      0.1847938 O_OD=      2.5878523 O_TOT=     25.2490258 <-- SPRD
 Delta: O_D=  0.9954156E-05 O_OD= -0.4524005E-04 O_TOT= -0.3528590E-04 <-- DLTA
 ------------------------------------------------------------------------------
 Cycle:     28
  WF centre and spread    1  (  0.000008, -0.000821, -0.000000 )     4.76807216
  WF centre and spread    2  ( -0.000003, -0.515711,  0.000000 )     5.22802361
  WF centre and spread    3  (  0.000001,  0.519332, -0.000000 )     5.22807868
  WF centre and spread    4  (  0.000009, -0.250901, -0.000000 )     5.01258136
  WF centre and spread    5  ( -0.000001,  0.252533, -0.000000 )     5.01224655
  Sum of centres and spreads (  0.000015,  0.004432,  0.000000 )    25.24900237

     28    -0.235E-04     0.0054371853       25.2490023011       0.58  <-- CONV
        O_D=      0.1848056 O_OD=      2.5878170 O_TOT=     25.2490023 <-- SPRD
 Delta: O_D=  0.1183144E-04 O_OD= -0.3534711E-04 O_TOT= -0.2351568E-04 <-- DLTA
 ------------------------------------------------------------------------------
 Cycle:     29
  WF centre and spread    1  (  0.000008, -0.000780, -0.000000 )     4.76817898
  WF centre and spread    2  ( -0.000003, -0.515715,  0.000000 )     5.22802493
  WF centre and spread    3  (  0.000001,  0.519334, -0.000000 )     5.22807621
  WF centre and spread    4  (  0.000009, -0.250907, -0.000000 )     5.01248979
  WF centre and spread    5  ( -0.000001,  0.252497, -0.000000 )     5.01220063
  Sum of centres and spreads (  0.000015,  0.004429,  0.000000 )    25.24897054

     29    -0.318E-04     0.0057466377       25.2489704718       0.59  <-- CONV
        O_D=      0.1848135 O_OD=      2.5877772 O_TOT=     25.2489705 <-- SPRD
 Delta: O_D=  0.7939675E-05 O_OD= -0.3976895E-04 O_TOT= -0.3182928E-04 <-- DLTA
 ------------------------------------------------------------------------------
 Cycle:     30
  WF centre and spread    1  (  0.000008, -0.000710, -0.000000 )     4.76858745
  WF centre and spread    2  ( -0.000003, -0.515714,  0.000000 )     5.22802736
  WF centre and spread    3  (  0.000001,  0.519330, -0.000000 )     5.22807493
  WF centre and spread    4  (  0.000009, -0.250950, -0.000000 )     5.01224851
  WF centre and spread    5  ( -0.000001,  0.252470, -0.000000 )     5.01199041
  Sum of centres and spreads (  0.000015,  0.004426,  0.000000 )    25.24892866

     30    -0.419E-04     0.0063767213       25.2489285935       0.60  <-- CONV
        O_D=      0.1848040 O_OD=      2.5877448 O_TOT=     25.2489286 <-- SPRD
 Delta: O_D= -0.9516599E-05 O_OD= -0.3236165E-04 O_TOT= -0.4187825E-04 <-- DLTA
 ------------------------------------------------------------------------------
 Cycle:     31
  WF centre and spread    1  (  0.000008, -0.000702, -0.000000 )     4.76872455
  WF centre and spread    2  ( -0.000003, -0.515710,  0.000000 )     5.22802634
  WF centre and spread    3  (  0.000001,  0.519326, -0.000000 )     5.22807443
  WF centre and spread    4  (  0.000009, -0.250968, -0.000000 )     5.01217561
  WF centre and spread    5  ( -0.000001,  0.252480, -0.000000 )     5.01189084
  Sum of centres and spreads (  0.000015,  0.004426,  0.000000 )    25.24889176

     31    -0.369E-04     0.0094755395       25.2488916962       0.61  <-- CONV
        O_D=      0.1847937 O_OD=      2.5877182 O_TOT=     25.2488917 <-- SPRD
 Delta: O_D= -0.1030714E-04 O_OD= -0.2659014E-04 O_TOT= -0.3689727E-04 <-- DLTA
 ------------------------------------------------------------------------------
 Cycle:     32
  WF centre and spread    1  (  0.000008, -0.000683, -0.000000 )     4.76902354
  WF centre and spread    2  ( -0.000003, -0.515701,  0.000000 )     5.22802477
  WF centre and spread    3  (  0.000001,  0.519318, -0.000000 )     5.22807392
  WF centre and spread    4  (  0.000009, -0.251011, -0.000000 )     5.01203293
  WF centre and spread    5  ( -0.000001,  0.252503, -0.000000 )     5.01170920
  Sum of centres and spreads (  0.000015,  0.004426,  0.000000 )    25.24886436

     32    -0.274E-04     0.0060383826       25.2488642944       0.62  <-- CONV
        O_D=      0.1847787 O_OD=      2.5877058 O_TOT=     25.2488643 <-- SPRD
 Delta: O_D= -0.1498540E-04 O_OD= -0.1241640E-04 O_TOT= -0.2740180E-04 <-- DLTA
 ------------------------------------------------------------------------------
 Cycle:     33
  WF centre and spread    1  (  0.000008, -0.000655, -0.000000 )     4.76924402
  WF centre and spread    2  ( -0.000003, -0.515690,  0.000000 )     5.22802387
  WF centre and spread    3  (  0.000001,  0.519307, -0.000000 )     5.22807396
  WF centre and spread    4  (  0.000009, -0.251066, -0.000000 )     5.01192670
  WF centre and spread    5  ( -0.000001,  0.252530, -0.000000 )     5.01157440
  Sum of centres and spreads (  0.000015,  0.004426,  0.000000 )    25.24884295

     33    -0.214E-04     0.0053159524       25.2488428830       0.63  <-- CONV
        O_D=      0.1847685 O_OD=      2.5876946 O_TOT=     25.2488429 <-- SPRD
 Delta: O_D= -0.1021454E-04 O_OD= -0.1119689E-04 O_TOT= -0.2141144E-04 <-- DLTA
 ------------------------------------------------------------------------------
 Cycle:     34
  WF centre and spread    1  (  0.000008, -0.000593, -0.000000 )     4.76921528
  WF centre and spread    2  ( -0.000003, -0.515670,  0.000000 )     5.22802401
  WF centre and spread    3  (  0.000001,  0.519289, -0.000000 )     5.22807518
  WF centre and spread    4  (  0.000009, -0.251168, -0.000000 )     5.01194983
  WF centre and spread    5  ( -0.000001,  0.252575, -0.000000 )     5.01154609
  Sum of centres and spreads (  0.000015,  0.004432,  0.000000 )    25.24881039

     34    -0.326E-04     0.0051924390       25.2488103298       0.64  <-- CONV
        O_D=      0.1847744 O_OD=      2.5876562 O_TOT=     25.2488103 <-- SPRD
 Delta: O_D=  0.5876344E-05 O_OD= -0.3842956E-04 O_TOT= -0.3255322E-04 <-- DLTA
 ------------------------------------------------------------------------------
 Cycle:     35
  WF centre and spread    1  (  0.000008, -0.000456, -0.000000 )     4.76874135
  WF centre and spread    2  ( -0.000003, -0.515637,  0.000000 )     5.22802676
  WF centre and spread    3  (  0.000002,  0.519257, -0.000000 )     5.22808001
  WF centre and spread    4  (  0.000010, -0.251358, -0.000000 )     5.01220202
  WF centre and spread    5  ( -0.000002,  0.252640, -0.000000 )     5.01169606
  Sum of centres and spreads (  0.000015,  0.004445,  0.000000 )    25.24874621

     35    -0.642E-04     0.0072678700       25.2487461435       0.65  <-- CONV
        O_D=      0.1848147 O_OD=      2.5875517 O_TOT=     25.2487461 <-- SPRD
 Delta: O_D=  0.4033244E-04 O_OD= -0.1045187E-03 O_TOT= -0.6418630E-04 <-- DLTA
 ------------------------------------------------------------------------------
 Cycle:     36
  WF centre and spread    1  (  0.000008, -0.000260, -0.000000 )     4.76808446
  WF centre and spread    2  ( -0.000004, -0.515603,  0.000000 )     5.22803112
  WF centre and spread    3  (  0.000002,  0.519225, -0.000000 )     5.22808703
  WF centre and spread    4  (  0.000010, -0.251588, -0.000000 )     5.01252891
  WF centre and spread    5  ( -0.000002,  0.252681, -0.000000 )     5.01192425
  Sum of centres and spreads (  0.000015,  0.004455,  0.000000 )    25.24865576

     36    -0.904E-04     0.0096151087       25.2486556939       0.66  <-- CONV
        O_D=      0.1848769 O_OD=      2.5873990 O_TOT=     25.2486557 <-- SPRD
 Delta: O_D=  0.6223095E-04 O_OD= -0.1526805E-03 O_TOT= -0.9044955E-04 <-- DLTA
 ------------------------------------------------------------------------------
 Cycle:     37
  WF centre and spread    1  (  0.000008, -0.000258, -0.000000 )     4.76826347
  WF centre and spread    2  ( -0.000004, -0.515612,  0.000000 )     5.22802856
  WF centre and spread    3  (  0.000002,  0.519233, -0.000000 )     5.22808350
  WF centre and spread    4  (  0.000010, -0.251568, -0.000000 )     5.01238318
  WF centre and spread    5  ( -0.000002,  0.252649, -0.000000 )     5.01181319
  Sum of centres and spreads (  0.000015,  0.004445,  0.000000 )    25.24857190

     37    -0.839E-04     0.0140611821       25.2485718304       0.67  <-- CONV
        O_D=      0.1848688 O_OD=      2.5873233 O_TOT=     25.2485718 <-- SPRD
 Delta: O_D= -0.8166126E-05 O_OD= -0.7569742E-04 O_TOT= -0.8386355E-04 <-- DLTA
 ------------------------------------------------------------------------------
 Cycle:     38
  WF centre and spread    1  (  0.000008, -0.000252, -0.000000 )     4.76851575
  WF centre and spread    2  ( -0.000004, -0.515631,  0.000000 )     5.22802538
  WF centre and spread    3  (  0.000002,  0.519252, -0.000000 )     5.22807828
  WF centre and spread    4  (  0.000010, -0.251527, -0.000000 )     5.01219301
  WF centre and spread    5  ( -0.000002,  0.252586, -0.000000 )     5.01169605
  Sum of centres and spreads (  0.000015,  0.004428,  0.000000 )    25.24850848

     38    -0.634E-04     0.0096138613       25.2485084152       0.68  <-- CONV
        O_D=      0.1848663 O_OD=      2.5872623 O_TOT=     25.2485084 <-- SPRD
 Delta: O_D= -0.2448044E-05 O_OD= -0.6096715E-04 O_TOT= -0.6341519E-04 <-- DLTA
 ------------------------------------------------------------------------------
 Cycle:     39
  WF centre and spread    1  (  0.000008, -0.000242, -0.000000 )     4.76850548
  WF centre and spread    2  ( -0.000004, -0.515649,  0.000000 )     5.22802444
  WF centre and spread    3  (  0.000002,  0.519268, -0.000000 )     5.22807539
  WF centre and spread    4  (  0.000010, -0.251496, -0.000000 )     5.01215095
  WF centre and spread    5  ( -0.000002,  0.252539, -0.000000 )     5.01171793
  Sum of centres and spreads (  0.000015,  0.004421,  0.000000 )    25.24847420

     39    -0.343E-04     0.0072191729       25.2484741304       0.68  <-- CONV
        O_D=      0.1848784 O_OD=      2.5872160 O_TOT=     25.2484741 <-- SPRD
 Delta: O_D=  0.1206608E-04 O_OD= -0.4635086E-04 O_TOT= -0.3428478E-04 <-- DLTA
 ------------------------------------------------------------------------------
 Cycle:     40
  WF centre and spread    1  (  0.000008, -0.000224, -0.000000 )     4.76836063
  WF centre and spread    2  ( -0.000004, -0.515664,  0.000000 )     5.22802476
  WF centre and spread    3  (  0.000002,  0.519283, -0.000000 )     5.22807395
  WF centre and spread    4  (  0.000010, -0.251484, -0.000000 )     5.01218353
  WF centre and spread    5  ( -0.000002,  0.252510, -0.000000 )     5.01180893
  Sum of centres and spreads (  0.000015,  0.004420,  0.000000 )    25.24845179

     40    -0.224E-04     0.0053146776       25.2484517291       0.70  <-- CONV
        O_D=      0.1848944 O_OD=      2.5871776 O_TOT=     25.2484517 <-- SPRD
 Delta: O_D=  0.1597056E-04 O_OD= -0.3837183E-04 O_TOT= -0.2240128E-04 <-- DLTA
 ------------------------------------------------------------------------------
 Cycle:     41
  WF centre and spread    1  (  0.000008, -0.000187, -0.000000 )     4.76823886
  WF centre and spread    2  ( -0.000004, -0.515685,  0.000000 )     5.22802606
  WF centre and spread    3  (  0.000002,  0.519302, -0.000000 )     5.22807343
  WF centre and spread    4  (  0.000010, -0.251493, -0.000000 )     5.01218470
  WF centre and spread    5  ( -0.000002,  0.252480, -0.000000 )     5.01189932
  Sum of centres and spreads (  0.000015,  0.004417,  0.000000 )    25.24842237

     41    -0.294E-04     0.0055639620       25.2484223086       0.70  <-- CONV
        O_D=      0.1849098 O_OD=      2.5871327 O_TOT=     25.2484223 <-- SPRD
 Delta: O_D=  0.1547757E-04 O_OD= -0.4489814E-04 O_TOT= -0.2942057E-04 <-- DLTA
 ------------------------------------------------------------------------------
 Cycle:     42
  WF centre and spread    1  (  0.000008, -0.000120, -0.000000 )     4.76834526
  WF centre and spread    2  ( -0.000004, -0.515708,  0.000000 )     5.22802809
  WF centre and spread    3  (  0.000002,  0.519323, -0.000000 )     5.22807450
  WF centre and spread    4  (  0.000010, -0.251541, -0.000000 )     5.01207086
  WF centre and spread    5  ( -0.000002,  0.252459, -0.000000 )     5.01186440
  Sum of centres and spreads (  0.000015,  0.004414,  0.000000 )    25.24838311

     42    -0.393E-04     0.0061612293       25.2483830487       0.72  <-- CONV
        O_D=      0.1849141 O_OD=      2.5870892 O_TOT=     25.2483830 <-- SPRD
 Delta: O_D=  0.4262073E-05 O_OD= -0.4352190E-04 O_TOT= -0.3925983E-04 <-- DLTA
 ------------------------------------------------------------------------------
 Cycle:     43
  WF centre and spread    1  (  0.000008, -0.000112, -0.000000 )     4.76848904
  WF centre and spread    2  ( -0.000004, -0.515704,  0.000000 )     5.22802701
  WF centre and spread    3  (  0.000002,  0.519320, -0.000000 )     5.22807400
  WF centre and spread    4  (  0.000010, -0.251559, -0.000000 )     5.01200234
  WF centre and spread    5  ( -0.000002,  0.252469, -0.000000 )     5.01175434
  Sum of centres and spreads (  0.000015,  0.004414,  0.000000 )    25.24834672

     43    -0.364E-04     0.0093760366       25.2483466547       0.72  <-- CONV
        O_D=      0.1849065 O_OD=      2.5870604 O_TOT=     25.2483467 <-- SPRD
 Delta: O_D= -0.7563437E-05 O_OD= -0.2883058E-04 O_TOT= -0.3639402E-04 <-- DLTA
 ------------------------------------------------------------------------------
 Cycle:     44
  WF centre and spread    1  (  0.000008, -0.000092, -0.000000 )     4.76881367
  WF centre and spread    2  ( -0.000004, -0.515695,  0.000000 )     5.22802520
  WF centre and spread    3  (  0.000002,  0.519311, -0.000000 )     5.22807356
  WF centre and spread    4  (  0.000010, -0.251602, -0.000000 )     5.01186065
  WF centre and spread    5  ( -0.000002,  0.252493, -0.000000 )     5.01154645
  Sum of centres and spreads (  0.000015,  0.004415,  0.000000 )    25.24831952

     44    -0.272E-04     0.0059957234       25.2483194589       0.73  <-- CONV
        O_D=      0.1848963 O_OD=      2.5870434 O_TOT=     25.2483195 <-- SPRD
 Delta: O_D= -0.1026421E-04 O_OD= -0.1693160E-04 O_TOT= -0.2719581E-04 <-- DLTA
 ------------------------------------------------------------------------------
 Cycle:     45
  WF centre and spread    1  (  0.000008, -0.000064, -0.000000 )     4.76909845
  WF centre and spread    2  ( -0.000004, -0.515683,  0.000000 )     5.22802392
  WF centre and spread    3  (  0.000002,  0.519301, -0.000000 )     5.22807378
  WF centre and spread    4  (  0.000011, -0.251658, -0.000000 )     5.01173545
  WF centre and spread    5  ( -0.000002,  0.252521, -0.000000 )     5.01136583
  Sum of centres and spreads (  0.000015,  0.004416,  0.000000 )    25.24829743

     45    -0.221E-04     0.0053716785       25.2482973678       0.74  <-- CONV
        O_D=      0.1848904 O_OD=      2.5870272 O_TOT=     25.2482974 <-- SPRD
 Delta: O_D= -0.5892367E-05 O_OD= -0.1619869E-04 O_TOT= -0.2209106E-04 <-- DLTA
 ------------------------------------------------------------------------------
 Cycle:     46
  WF centre and spread    1  (  0.000008, -0.000003, -0.000000 )     4.76920030
  WF centre and spread    2  ( -0.000004, -0.515664,  0.000000 )     5.22802364
  WF centre and spread    3  (  0.000002,  0.519283, -0.000000 )     5.22807559
  WF centre and spread    4  (  0.000011, -0.251758, -0.000000 )     5.01170848
  WF centre and spread    5  ( -0.000002,  0.252566, -0.000000 )     5.01125578
  Sum of centres and spreads (  0.000015,  0.004424,  0.000000 )    25.24826378

     46    -0.336E-04     0.0052815906       25.2482637188       0.75  <-- CONV
        O_D=      0.1849022 O_OD=      2.5869817 O_TOT=     25.2482637 <-- SPRD
 Delta: O_D=  0.1184202E-04 O_OD= -0.4549102E-04 O_TOT= -0.3364900E-04 <-- DLTA
 ------------------------------------------------------------------------------
 Cycle:     47
  WF centre and spread    1  (  0.000008,  0.000121, -0.000000 )     4.76895851
  WF centre and spread    2  ( -0.000004, -0.515634,  0.000000 )     5.22802645
  WF centre and spread    3  (  0.000002,  0.519255, -0.000000 )     5.22808169
  WF centre and spread    4  (  0.000011, -0.251930, -0.000000 )     5.01185502
  WF centre and spread    5  ( -0.000003,  0.252626, -0.000000 )     5.01127917
  Sum of centres and spreads (  0.000015,  0.004439,  0.000000 )    25.24820085

     47    -0.629E-04     0.0073030224       25.2482007849       0.76  <-- CONV
        O_D=      0.1849473 O_OD=      2.5868737 O_TOT=     25.2482008 <-- SPRD
 Delta: O_D=  0.4510732E-04 O_OD= -0.1080412E-03 O_TOT= -0.6293391E-04 <-- DLTA
 ------------------------------------------------------------------------------
 Cycle:     48
  WF centre and spread    1  (  0.000008,  0.000291, -0.000000 )     4.76857401
  WF centre and spread    2  ( -0.000004, -0.515607,  0.000000 )     5.22803180
  WF centre and spread    3  (  0.000003,  0.519231, -0.000000 )     5.22808991
  WF centre and spread    4  (  0.000011, -0.252125, -0.000000 )     5.01204273
  WF centre and spread    5  ( -0.000003,  0.252658, -0.000000 )     5.01137625
  Sum of centres and spreads (  0.000015,  0.004449,  0.000000 )    25.24811470

     48    -0.861E-04     0.0094905973       25.2481146395       0.77  <-- CONV
        O_D=      0.1850093 O_OD=      2.5867256 O_TOT=     25.2481146 <-- SPRD
 Delta: O_D=  0.6198798E-04 O_OD= -0.1481335E-03 O_TOT= -0.8614547E-04 <-- DLTA
 ------------------------------------------------------------------------------
 Cycle:     49
  WF centre and spread    1  (  0.000008,  0.000292, -0.000000 )     4.76870081
  WF centre and spread    2  ( -0.000004, -0.515616,  0.000000 )     5.22802913
  WF centre and spread    3  (  0.000003,  0.519240, -0.000000 )     5.22808570
  WF centre and spread    4  (  0.000011, -0.252103, -0.000000 )     5.01192004
  WF centre and spread    5  ( -0.000003,  0.252627, -0.000000 )     5.01129794
  Sum of centres and spreads (  0.000015,  0.004439,  0.000000 )    25.24803362

     49    -0.811E-04     0.0138092387       25.2480335564       0.78  <-- CONV
        O_D=      0.1849997 O_OD=      2.5866541 O_TOT=     25.2480336 <-- SPRD
 Delta: O_D= -0.9629570E-05 O_OD= -0.7145348E-04 O_TOT= -0.8108305E-04 <-- DLTA
 ------------------------------------------------------------------------------
 Cycle:     50
  WF centre and spread    1  (  0.000008,  0.000294, -0.000000 )     4.76884518
  WF centre and spread    2  ( -0.000004, -0.515637,  0.000000 )     5.22802554
  WF centre and spread    3  (  0.000003,  0.519259, -0.000000 )     5.22807918
  WF centre and spread    4  (  0.000011, -0.252060, -0.000000 )     5.01177196
  WF centre and spread    5  ( -0.000003,  0.252565, -0.000000 )     5.01124998
  Sum of centres and spreads (  0.000015,  0.004421,  0.000000 )    25.24797184

     50    -0.618E-04     0.0094459683       25.2479717759       0.79  <-- CONV
        O_D=      0.1849918 O_OD=      2.5866002 O_TOT=     25.2479718 <-- SPRD
 Delta: O_D= -0.7871081E-05 O_OD= -0.5390944E-04 O_TOT= -0.6178052E-04 <-- DLTA
 ------------------------------------------------------------------------------
 Cycle:     51
  WF centre and spread    1  (  0.000008,  0.000301, -0.000000 )     4.76874273
  WF centre and spread    2  ( -0.000005, -0.515656,  0.000000 )     5.22802423
  WF centre and spread    3  (  0.000003,  0.519277, -0.000000 )     5.22807539
  WF centre and spread    4  (  0.000011, -0.252026, -0.000000 )     5.01175938
  WF centre and spread    5  ( -0.000003,  0.252516, -0.000000 )     5.01133492
  Sum of centres and spreads (  0.000015,  0.004412,  0.000000 )    25.24793665

     51    -0.352E-04     0.0072493141       25.2479365895       0.80  <-- CONV
        O_D=      0.1849976 O_OD=      2.5865592 O_TOT=     25.2479366 <-- SPRD
 Delta: O_D=  0.5795653E-05 O_OD= -0.4098207E-04 O_TOT= -0.3518642E-04 <-- DLTA
 ------------------------------------------------------------------------------
 Cycle:     52
  WF centre and spread    1  (  0.000008,  0.000316, -0.000000 )     4.76851681
  WF centre and spread    2  ( -0.000005, -0.515673,  0.000000 )     5.22802451
  WF centre and spread    3  (  0.000003,  0.519292, -0.000000 )     5.22807375
  WF centre and spread    4  (  0.000011, -0.252013, -0.000000 )     5.01181773
  WF centre and spread    5  ( -0.000003,  0.252488, -0.000000 )     5.01148053
  Sum of centres and spreads (  0.000015,  0.004410,  0.000000 )    25.24791333

     52    -0.233E-04     0.0054258182       25.2479132694       0.81  <-- CONV
        O_D=      0.1850082 O_OD=      2.5865253 O_TOT=     25.2479133 <-- SPRD
 Delta: O_D=  0.1062441E-04 O_OD= -0.3394448E-04 O_TOT= -0.2332007E-04 <-- DLTA
 ------------------------------------------------------------------------------
 Cycle:     53
  WF centre and spread    1  (  0.000008,  0.000349, -0.000000 )     4.76829279
  WF centre and spread    2  ( -0.000005, -0.515692,  0.000000 )     5.22802625
  WF centre and spread    3  (  0.000003,  0.519309, -0.000000 )     5.22807367
  WF centre and spread    4  (  0.000011, -0.252022, -0.000000 )     5.01185576
  WF centre and spread    5  ( -0.000003,  0.252462, -0.000000 )     5.01163586
  Sum of centres and spreads (  0.000015,  0.004406,  0.000000 )    25.24788432

     53    -0.290E-04     0.0056064528       25.2478842595       0.82  <-- CONV
        O_D=      0.1850155 O_OD=      2.5864890 O_TOT=     25.2478843 <-- SPRD
 Delta: O_D=  0.7269353E-05 O_OD= -0.3627928E-04 O_TOT= -0.2900992E-04 <-- DLTA
 ------------------------------------------------------------------------------
 Cycle:     54
  WF centre and spread    1  (  0.000008,  0.000408, -0.000000 )     4.76826400
  WF centre and spread    2  ( -0.000005, -0.515710,  0.000000 )     5.22802919
  WF centre and spread    3  (  0.000003,  0.519325, -0.000000 )     5.22807555
  WF centre and spread    4  (  0.000012, -0.252071, -0.000000 )     5.01180243
  WF centre and spread    5  ( -0.000003,  0.252451, -0.000000 )     5.01167588
  Sum of centres and spreads (  0.000015,  0.004402,  0.000000 )    25.24784705

     54    -0.373E-04     0.0060761140       25.2478469876       0.83  <-- CONV
        O_D=      0.1850124 O_OD=      2.5864549 O_TOT=     25.2478470 <-- SPRD
 Delta: O_D= -0.3143024E-05 O_OD= -0.3412890E-04 O_TOT= -0.3727192E-04 <-- DLTA
 ------------------------------------------------------------------------------
 Cycle:     55
  WF centre and spread    1  (  0.000008,  0.000416, -0.000000 )     4.76840616
  WF centre and spread    2  ( -0.000005, -0.515706,  0.000000 )     5.22802787
  WF centre and spread    3  (  0.000003,  0.519321, -0.000000 )     5.22807479
  WF centre and spread    4  (  0.000012, -0.252088, -0.000000 )     5.01174185
  WF centre and spread    5  ( -0.000003,  0.252460, -0.000000 )     5.01156162
  Sum of centres and spreads (  0.000015,  0.004403,  0.000000 )    25.24781228

     55    -0.348E-04     0.0091391170       25.2478122190       0.84  <-- CONV
        O_D=      0.1850080 O_OD=      2.5864245 O_TOT=     25.2478122 <-- SPRD
 Delta: O_D= -0.4362095E-05 O_OD= -0.3040648E-04 O_TOT= -0.3476858E-04 <-- DLTA
 ------------------------------------------------------------------------------
 Cycle:     56
  WF centre and spread    1  (  0.000008,  0.000436, -0.000000 )     4.76873955
  WF centre and spread    2  ( -0.000005, -0.515695,  0.000000 )     5.22802550
  WF centre and spread    3  (  0.000003,  0.519311, -0.000000 )     5.22807388
  WF centre and spread    4  (  0.000012, -0.252131, -0.000000 )     5.01160920
  WF centre and spread    5  ( -0.000003,  0.252483, -0.000000 )     5.01133728
  Sum of centres and spreads (  0.000015,  0.004404,  0.000000 )    25.24778540

     56    -0.269E-04     0.0058954976       25.2477853394       0.85  <-- CONV
        O_D=      0.1850035 O_OD=      2.5864021 O_TOT=     25.2477853 <-- SPRD
 Delta: O_D= -0.4556384E-05 O_OD= -0.2232317E-04 O_TOT= -0.2687955E-04 <-- DLTA
 ------------------------------------------------------------------------------
 Cycle:     57
  WF centre and spread    1  (  0.000008,  0.000465, -0.000000 )     4.76906514
  WF centre and spread    2  ( -0.000005, -0.515682,  0.000000 )     5.22802370
  WF centre and spread    3  (  0.000003,  0.519299, -0.000000 )     5.22807396
  WF centre and spread    4  (  0.000012, -0.252189, -0.000000 )     5.01147659
  WF centre and spread    5  ( -0.000004,  0.252512, -0.000000 )     5.01112281
  Sum of centres and spreads (  0.000015,  0.004406,  0.000000 )    25.24776219

     57    -0.232E-04     0.0054366977       25.2477621260       0.86  <-- CONV
        O_D=      0.1850032 O_OD=      2.5863792 O_TOT=     25.2477621 <-- SPRD
 Delta: O_D= -0.2485893E-06 O_OD= -0.2296488E-04 O_TOT= -0.2321347E-04 <-- DLTA
 ------------------------------------------------------------------------------
 Cycle:     58
  WF centre and spread    1  (  0.000008,  0.000525, -0.000000 )     4.76924569
  WF centre and spread    2  ( -0.000005, -0.515659,  0.000000 )     5.22802352
  WF centre and spread    3  (  0.000003,  0.519279, -0.000000 )     5.22807657
  WF centre and spread    4  (  0.000012, -0.252287, -0.000000 )     5.01142159
  WF centre and spread    5  ( -0.000004,  0.252558, -0.000000 )     5.01095937
  Sum of centres and spreads (  0.000015,  0.004416,  0.000000 )    25.24772674

     58    -0.354E-04     0.0054526274       25.2477266770       0.87  <-- CONV
        O_D=      0.1850225 O_OD=      2.5863244 O_TOT=     25.2477267 <-- SPRD
 Delta: O_D=  0.1932183E-04 O_OD= -0.5477077E-04 O_TOT= -0.3544894E-04 <-- DLTA
 ------------------------------------------------------------------------------
 Cycle:     59
  WF centre and spread    1  (  0.000008,  0.000637, -0.000000 )     4.76912020
  WF centre and spread    2  ( -0.000005, -0.515628,  0.000000 )     5.22802853
  WF centre and spread    3  (  0.000003,  0.519251, -0.000000 )     5.22808520
  WF centre and spread    4  (  0.000012, -0.252440, -0.000000 )     5.01150973
  WF centre and spread    5  ( -0.000004,  0.252612, -0.000000 )     5.01092139
  Sum of centres and spreads (  0.000015,  0.004432,  0.000000 )    25.24766505

     59    -0.617E-04     0.0073771842       25.2476649870       0.88  <-- CONV
        O_D=      0.1850721 O_OD=      2.5862131 O_TOT=     25.2476650 <-- SPRD
 Delta: O_D=  0.4960008E-04 O_OD= -0.1112901E-03 O_TOT= -0.6169002E-04 <-- DLTA
 ------------------------------------------------------------------------------
 Cycle:     60
  WF centre and spread    1  (  0.000008,  0.000780, -0.000000 )     4.76886458
  WF centre and spread    2  ( -0.000005, -0.515603,  0.000000 )     5.22803727
  WF centre and spread    3  (  0.000003,  0.519229, -0.000000 )     5.22809583
  WF centre and spread    4  (  0.000012, -0.252598, -0.000000 )     5.01161715
  WF centre and spread    5  ( -0.000004,  0.252634, -0.000000 )     5.01097008
  Sum of centres and spreads (  0.000015,  0.004441,  0.000000 )    25.24758492

     60    -0.801E-04     0.0092874021       25.2475848555       0.89  <-- CONV
        O_D=      0.1851312 O_OD=      2.5860739 O_TOT=     25.2475849 <-- SPRD
 Delta: O_D=  0.5907723E-04 O_OD= -0.1392088E-03 O_TOT= -0.8013154E-04 <-- DLTA
 ------------------------------------------------------------------------------
 Cycle:     61
  WF centre and spread    1  (  0.000008,  0.000779, -0.000000 )     4.76895632
  WF centre and spread    2  ( -0.000005, -0.515614,  0.000000 )     5.22803338
  WF centre and spread    3  (  0.000003,  0.519239, -0.000000 )     5.22809008
  WF centre and spread    4  (  0.000012, -0.252577, -0.000000 )     5.01151239
  WF centre and spread    5  ( -0.000004,  0.252605, -0.000000 )     5.01091720
  Sum of centres and spreads (  0.000015,  0.004432,  0.000000 )    25.24750936

     61    -0.756E-04     0.0133261587       25.2475092952       0.90  <-- CONV
        O_D=      0.1851200 O_OD=      2.5860096 O_TOT=     25.2475093 <-- SPRD
 Delta: O_D= -0.1123582E-04 O_OD= -0.6432440E-04 O_TOT= -0.7556022E-04 <-- DLTA
 ------------------------------------------------------------------------------
 Cycle:     62
  WF centre and spread    1  (  0.000008,  0.000780, -0.000000 )     4.76903587
  WF centre and spread    2  ( -0.000005, -0.515637,  0.000000 )     5.22802749
  WF centre and spread    3  (  0.000004,  0.519260, -0.000000 )     5.22808065
  WF centre and spread    4  (  0.000012, -0.252535, -0.000000 )     5.01138987
  WF centre and spread    5  ( -0.000004,  0.252545, -0.000000 )     5.01091579
  Sum of centres and spreads (  0.000015,  0.004413,  0.000000 )    25.24744967

     62    -0.597E-04     0.0091638650       25.2474496031       0.90  <-- CONV
        O_D=      0.1851057 O_OD=      2.5859642 O_TOT=     25.2474496 <-- SPRD
 Delta: O_D= -0.1431512E-04 O_OD= -0.4537703E-04 O_TOT= -0.5969215E-04 <-- DLTA
 ------------------------------------------------------------------------------
 Cycle:     63
  WF centre and spread    1  (  0.000008,  0.000785, -0.000000 )     4.76887953
  WF centre and spread    2  ( -0.000005, -0.515660,  0.000000 )     5.22802479
  WF centre and spread    3  (  0.000004,  0.519281, -0.000000 )     5.22807510
  WF centre and spread    4  (  0.000012, -0.252499, -0.000000 )     5.01139131
  WF centre and spread    5  ( -0.000004,  0.252496, -0.000000 )     5.01104213
  Sum of centres and spreads (  0.000015,  0.004402,  0.000000 )    25.24741287

     63    -0.368E-04     0.0072945790       25.2474128039       0.92  <-- CONV
        O_D=      0.1851032 O_OD=      2.5859299 O_TOT=     25.2474128 <-- SPRD
 Delta: O_D= -0.2500744E-05 O_OD= -0.3429844E-04 O_TOT= -0.3679919E-04 <-- DLTA
 ------------------------------------------------------------------------------
 Cycle:     64
  WF centre and spread    1  (  0.000008,  0.000798, -0.000000 )     4.76861441
  WF centre and spread    2  ( -0.000005, -0.515678,  0.000000 )     5.22802484
  WF centre and spread    3  (  0.000004,  0.519297, -0.000000 )     5.22807325
  WF centre and spread    4  (  0.000012, -0.252486, -0.000000 )     5.01145775
  WF centre and spread    5  ( -0.000004,  0.252468, -0.000000 )     5.01121757
  Sum of centres and spreads (  0.000015,  0.004399,  0.000000 )    25.24738782

     64    -0.250E-04     0.0056333998       25.2473877563       0.92  <-- CONV
        O_D=      0.1851068 O_OD=      2.5859012 O_TOT=     25.2473878 <-- SPRD
 Delta: O_D=  0.3629934E-05 O_OD= -0.2867755E-04 O_TOT= -0.2504761E-04 <-- DLTA
 ------------------------------------------------------------------------------
 Cycle:     65
  WF centre and spread    1  (  0.000008,  0.000827, -0.000000 )     4.76836585
  WF centre and spread    2  ( -0.000005, -0.515697,  0.000000 )     5.22802726
  WF centre and spread    3  (  0.000004,  0.519313, -0.000000 )     5.22807422
  WF centre and spread    4  (  0.000013, -0.252497, -0.000000 )     5.01150186
  WF centre and spread    5  ( -0.000004,  0.252449, -0.000000 )     5.01138956
  Sum of centres and spreads (  0.000015,  0.004395,  0.000000 )    25.24735875

     65    -0.291E-04     0.0057238624       25.2473586877       0.94  <-- CONV
        O_D=      0.1851057 O_OD=      2.5858732 O_TOT=     25.2473587 <-- SPRD
 Delta: O_D= -0.1036344E-05 O_OD= -0.2803225E-04 O_TOT= -0.2906860E-04 <-- DLTA
 ------------------------------------------------------------------------------
 Cycle:     66
  WF centre and spread    1  (  0.000009,  0.000878, -0.000000 )     4.76831172
  WF centre and spread    2  ( -0.000006, -0.515712,  0.000000 )     5.22803113
  WF centre and spread    3  (  0.000004,  0.519325, -0.000000 )     5.22807748
  WF centre and spread    4  (  0.000013, -0.252546, -0.000000 )     5.01146731
  WF centre and spread    5  ( -0.000005,  0.252446, -0.000000 )     5.01143636
  Sum of centres and spreads (  0.000015,  0.004391,  0.000000 )    25.24732400

     66    -0.348E-04     0.0059762925       25.2473239372       0.94  <-- CONV
        O_D=      0.1850975 O_OD=      2.5858467 O_TOT=     25.2473239 <-- SPRD
 Delta: O_D= -0.8245363E-05 O_OD= -0.2650511E-04 O_TOT= -0.3475048E-04 <-- DLTA
 ------------------------------------------------------------------------------
 Cycle:     67
  WF centre and spread    1  (  0.000009,  0.000886, -0.000000 )     4.76844254
  WF centre and spread    2  ( -0.000006, -0.515707,  0.000000 )     5.22802936
  WF centre and spread    3  (  0.000004,  0.519321, -0.000000 )     5.22807624
  WF centre and spread    4  (  0.000013, -0.252561, -0.000000 )     5.01141740
  WF centre and spread    5  ( -0.000005,  0.252455, -0.000000 )     5.01132624
  Sum of centres and spreads (  0.000015,  0.004393,  0.000000 )    25.24729178

     67    -0.322E-04     0.0087759958       25.2472917178       0.95  <-- CONV
        O_D=      0.1850964 O_OD=      2.5858156 O_TOT=     25.2472917 <-- SPRD
 Delta: O_D= -0.1137725E-05 O_OD= -0.3108168E-04 O_TOT= -0.3221941E-04 <-- DLTA
 ------------------------------------------------------------------------------
 Cycle:     68
  WF centre and spread    1  (  0.000009,  0.000905, -0.000000 )     4.76876690
  WF centre and spread    2  ( -0.000006, -0.515695,  0.000000 )     5.22802600
  WF centre and spread    3  (  0.000004,  0.519310, -0.000000 )     5.22807442
  WF centre and spread    4  (  0.000013, -0.252602, -0.000000 )     5.01129932
  WF centre and spread    5  ( -0.000005,  0.252476, -0.000000 )     5.01109863
  Sum of centres and spreads (  0.000015,  0.004394,  0.000000 )    25.24726527

     68    -0.265E-04     0.0057422664       25.2472652016       0.96  <-- CONV
        O_D=      0.1850980 O_OD=      2.5857874 O_TOT=     25.2472652 <-- SPRD
 Delta: O_D=  0.1666031E-05 O_OD= -0.2818225E-04 O_TOT= -0.2651622E-04 <-- DLTA
 ------------------------------------------------------------------------------
 Cycle:     69
  WF centre and spread    1  (  0.000009,  0.000935, -0.000000 )     4.76911203
  WF centre and spread    2  ( -0.000006, -0.515679,  0.000000 )     5.22802349
  WF centre and spread    3  (  0.000004,  0.519296, -0.000000 )     5.22807415
  WF centre and spread    4  (  0.000013, -0.252660, -0.000000 )     5.01116660
  WF centre and spread    5  ( -0.000005,  0.252504, -0.000000 )     5.01086412
  Sum of centres and spreads (  0.000015,  0.004397,  0.000000 )    25.24724039

     69    -0.249E-04     0.0055243853       25.2472403206       0.97  <-- CONV
        O_D=      0.1851046 O_OD=      2.5857559 O_TOT=     25.2472403 <-- SPRD
 Delta: O_D=  0.6608649E-05 O_OD= -0.3148966E-04 O_TOT= -0.2488101E-04 <-- DLTA
 ------------------------------------------------------------------------------
 Cycle:     70
  WF centre and spread    1  (  0.000009,  0.000994, -0.000000 )     4.76932598
  WF centre and spread    2  ( -0.000006, -0.515653,  0.000000 )     5.22802422
  WF centre and spread    3  (  0.000004,  0.519273, -0.000000 )     5.22807818
  WF centre and spread    4  (  0.000013, -0.252755, -0.000000 )     5.01109816
  WF centre and spread    5  ( -0.000005,  0.252548, -0.000000 )     5.01067586
  Sum of centres and spreads (  0.000015,  0.004408,  0.000000 )    25.24720239

     70    -0.380E-04     0.0056996459       25.2472023238       0.98  <-- CONV
        O_D=      0.1851330 O_OD=      2.5856896 O_TOT=     25.2472023 <-- SPRD
 Delta: O_D=  0.2834769E-04 O_OD= -0.6634452E-04 O_TOT= -0.3799683E-04 <-- DLTA
 ------------------------------------------------------------------------------
 Cycle:     71
  WF centre and spread    1  (  0.000009,  0.001092, -0.000000 )     4.76923205
  WF centre and spread    2  ( -0.000006, -0.515622,  0.000000 )     5.22803325
  WF centre and spread    3  (  0.000004,  0.519246, -0.000000 )     5.22809060
  WF centre and spread    4  (  0.000013, -0.252886, -0.000000 )     5.01115712
  WF centre and spread    5  ( -0.000005,  0.252594, -0.000000 )     5.01062888
  Sum of centres and spreads (  0.000015,  0.004423,  0.000000 )    25.24714190

     71    -0.605E-04     0.0074931222       25.2471418393       0.99  <-- CONV
        O_D=      0.1851878 O_OD=      2.5855743 O_TOT=     25.2471418 <-- SPRD
 Delta: O_D=  0.5479779E-04 O_OD= -0.1152822E-03 O_TOT= -0.6048441E-04 <-- DLTA
 ------------------------------------------------------------------------------
 Cycle:     72
  WF centre and spread    1  (  0.000009,  0.001207, -0.000000 )     4.76901506
  WF centre and spread    2  ( -0.000006, -0.515601,  0.000000 )     5.22804565
  WF centre and spread    3  (  0.000004,  0.519229, -0.000000 )     5.22810359
  WF centre and spread    4  (  0.000013, -0.253008, -0.000000 )     5.01122106
  WF centre and spread    5  ( -0.000005,  0.252604, -0.000000 )     5.01068340
  Sum of centres and spreads (  0.000015,  0.004431,  0.000000 )    25.24706876

     72    -0.731E-04     0.0090163852       25.2470686966       1.00  <-- CONV
        O_D=      0.1852440 O_OD=      2.5854449 O_TOT=     25.2470687 <-- SPRD
 Delta: O_D=  0.5621400E-04 O_OD= -0.1293567E-03 O_TOT= -0.7314275E-04 <-- DLTA
 ------------------------------------------------------------------------------
 Cycle:     73
  WF centre and spread    1  (  0.000009,  0.001206, -0.000000 )     4.76909236
  WF centre and spread    2  ( -0.000006, -0.515612,  0.000000 )     5.22803980
  WF centre and spread    3  (  0.000004,  0.519239, -0.000000 )     5.22809587
  WF centre and spread    4  (  0.000013, -0.252990, -0.000000 )     5.01112882
  WF centre and spread    5  ( -0.000005,  0.252579, -0.000000 )     5.01064311
  Sum of centres and spreads (  0.000015,  0.004423,  0.000000 )    25.24699996

     73    -0.688E-04     0.0127134156       25.2469998931       1.01  <-- CONV
        O_D=      0.1852307 O_OD=      2.5853894 O_TOT=     25.2469999 <-- SPRD
 Delta: O_D= -0.1330664E-04 O_OD= -0.5549688E-04 O_TOT= -0.6880351E-04 <-- DLTA
 ------------------------------------------------------------------------------
 Cycle:     74
  WF centre and spread    1  (  0.000009,  0.001206, -0.000000 )     4.76915246
  WF centre and spread    2  ( -0.000006, -0.515639,  0.000000 )     5.22803016
  WF centre and spread    3  (  0.000004,  0.519263, -0.000000 )     5.22808252
  WF centre and spread    4  (  0.000013, -0.252951, -0.000000 )     5.01101807
  WF centre and spread    5  ( -0.000005,  0.252524, -0.000000 )     5.01065915
  Sum of centres and spreads (  0.000015,  0.004404,  0.000000 )    25.24694236

     74    -0.576E-04     0.0088250894       25.2469422946       1.02  <-- CONV
        O_D=      0.1852088 O_OD=      2.5853538 O_TOT=     25.2469423 <-- SPRD
 Delta: O_D= -0.2192379E-04 O_OD= -0.3567472E-04 O_TOT= -0.5759851E-04 <-- DLTA
 ------------------------------------------------------------------------------
 Cycle:     75
  WF centre and spread    1  (  0.000009,  0.001211, -0.000000 )     4.76898107
  WF centre and spread    2  ( -0.000006, -0.515665,  0.000000 )     5.22802539
  WF centre and spread    3  (  0.000004,  0.519286, -0.000000 )     5.22807468
  WF centre and spread    4  (  0.000013, -0.252918, -0.000000 )     5.01102120
  WF centre and spread    5  ( -0.000005,  0.252478, -0.000000 )     5.01080090
  Sum of centres and spreads (  0.000015,  0.004392,  0.000000 )    25.24690325

     75    -0.391E-04     0.0073692672       25.2469031821       1.03  <-- CONV
        O_D=      0.1851964 O_OD=      2.5853271 O_TOT=     25.2469032 <-- SPRD
 Delta: O_D= -0.1239405E-04 O_OD= -0.2671845E-04 O_TOT= -0.3911250E-04 <-- DLTA
 ------------------------------------------------------------------------------
 Cycle:     76
  WF centre and spread    1  (  0.000009,  0.001224, -0.000000 )     4.76871091
  WF centre and spread    2  ( -0.000006, -0.515685,  0.000000 )     5.22802546
  WF centre and spread    3  (  0.000004,  0.519304, -0.000000 )     5.22807297
  WF centre and spread    4  (  0.000014, -0.252908, -0.000000 )     5.01108443
  WF centre and spread    5  ( -0.000005,  0.252454, -0.000000 )     5.01098224
  Sum of centres and spreads (  0.000015,  0.004388,  0.000000 )    25.24687601

     76    -0.272E-04     0.0059022479       25.2468759466       1.04  <-- CONV
        O_D=      0.1851923 O_OD=      2.5853039 O_TOT=     25.2468759 <-- SPRD
 Delta: O_D= -0.4039836E-05 O_OD= -0.2319566E-04 O_TOT= -0.2723549E-04 <-- DLTA
 ------------------------------------------------------------------------------
 Cycle:     77
  WF centre and spread    1  (  0.000009,  0.001250, -0.000000 )     4.76848391
  WF centre and spread    2  ( -0.000006, -0.515703,  0.000000 )     5.22802889
  WF centre and spread    3  (  0.000004,  0.519318, -0.000000 )     5.22807542
  WF centre and spread    4  (  0.000014, -0.252922, -0.000000 )     5.01111984
  WF centre and spread    5  ( -0.000006,  0.252441, -0.000000 )     5.01113883
  Sum of centres and spreads (  0.000015,  0.004384,  0.000000 )    25.24684688

     77    -0.291E-04     0.0058628511       25.2468468165       1.05  <-- CONV
        O_D=      0.1851847 O_OD=      2.5852823 O_TOT=     25.2468468 <-- SPRD
 Delta: O_D= -0.7604329E-05 O_OD= -0.2152578E-04 O_TOT= -0.2913011E-04 <-- DLTA
 ------------------------------------------------------------------------------
 Cycle:     78
  WF centre and spread    1  (  0.000009,  0.001294, -0.000000 )     4.76845268
  WF centre and spread    2  ( -0.000006, -0.515712,  0.000000 )     5.22803313
  WF centre and spread    3  (  0.000005,  0.519324, -0.000000 )     5.22807969
  WF centre and spread    4  (  0.000014, -0.252970, -0.000000 )     5.01108699
  WF centre and spread    5  ( -0.000006,  0.252445, -0.000000 )     5.01116235
  Sum of centres and spreads (  0.000015,  0.004382,  0.000000 )    25.24681484

     78    -0.320E-04     0.0058484886       25.2468147744       1.06  <-- CONV
        O_D=      0.1851748 O_OD=      2.5852602 O_TOT=     25.2468148 <-- SPRD
 Delta: O_D= -0.9947127E-05 O_OD= -0.2209493E-04 O_TOT= -0.3204205E-04 <-- DLTA
[...]
  WF centre and spread    3  (  0.000005,  0.519320, -0.000000 )     5.22807792
  WF centre and spread    4  (  0.000014, -0.252982, -0.000000 )     5.01104793
  WF centre and spread    5  ( -0.000006,  0.252452, -0.000000 )     5.01106275
  Sum of centres and spreads (  0.000015,  0.004383,  0.000000 )    25.24678525

     79    -0.296E-04     0.0083870196       25.2467851815       1.07  <-- CONV
        O_D=      0.1851761 O_OD=      2.5852293 O_TOT=     25.2467852 <-- SPRD
 Delta: O_D=  0.1298860E-05 O_OD= -0.3089183E-04 O_TOT= -0.2959297E-04 <-- DLTA
 ------------------------------------------------------------------------------
 Cycle:     80
  WF centre and spread    1  (  0.000009,  0.001319, -0.000000 )     4.76886519
  WF centre and spread    2  ( -0.000006, -0.515694,  0.000000 )     5.22802640
  WF centre and spread    3  (  0.000005,  0.519308, -0.000000 )     5.22807500
  WF centre and spread    4  (  0.000014, -0.253019, -0.000000 )     5.01094657
  WF centre and spread    5  ( -0.000006,  0.252470, -0.000000 )     5.01084582
  Sum of centres and spreads (  0.000015,  0.004385,  0.000000 )    25.24675899

     80    -0.263E-04     0.0055832686       25.2467589254       1.08  <-- CONV
        O_D=      0.1851830 O_OD=      2.5851961 O_TOT=     25.2467589 <-- SPRD
 Delta: O_D=  0.6945591E-05 O_OD= -0.3320160E-04 O_TOT= -0.2625601E-04 <-- DLTA
 ------------------------------------------------------------------------------
 Cycle:     81
  WF centre and spread    1  (  0.000009,  0.001348, -0.000000 )     4.76920655
  WF centre and spread    2  ( -0.000006, -0.515675,  0.000000 )     5.22802331
  WF centre and spread    3  (  0.000005,  0.519292, -0.000000 )     5.22807434
  WF centre and spread    4  (  0.000014, -0.253074, -0.000000 )     5.01081859
  WF centre and spread    5  ( -0.000006,  0.252496, -0.000000 )     5.01060934
  Sum of centres and spreads (  0.000015,  0.004388,  0.000000 )    25.24673214

     81    -0.269E-04     0.0056300074       25.2467320726       1.09  <-- CONV
        O_D=      0.1851963 O_OD=      2.5851561 O_TOT=     25.2467321 <-- SPRD
 Delta: O_D=  0.1323911E-04 O_OD= -0.4009200E-04 O_TOT= -0.2685289E-04 <-- DLTA
 ------------------------------------------------------------------------------
 Cycle:     82
  WF centre and spread    1  (  0.000009,  0.001404, -0.000000 )     4.76941435
  WF centre and spread    2  ( -0.000007, -0.515647,  0.000000 )     5.22802591
  WF centre and spread    3  (  0.000005,  0.519268, -0.000000 )     5.22808037
  WF centre and spread    4  (  0.000014, -0.253161,  0.000000 )     5.01074549
  WF centre and spread    5  ( -0.000006,  0.252535, -0.000000 )     5.01042526
  Sum of centres and spreads (  0.000015,  0.004399,  0.000000 )    25.24669138

     82    -0.408E-04     0.0059725728       25.2466913169       1.10  <-- CONV
        O_D=      0.1852330 O_OD=      2.5850785 O_TOT=     25.2466913 <-- SPRD
 Delta: O_D=  0.3676584E-04 O_OD= -0.7752152E-04 O_TOT= -0.4075568E-04 <-- DLTA
 ------------------------------------------------------------------------------
 Cycle:     83
  WF centre and spread    1  (  0.000009,  0.001487, -0.000000 )     4.76930450
  WF centre and spread    2  ( -0.000007, -0.515616,  0.000000 )     5.22803939
  WF centre and spread    3  (  0.000005,  0.519242, -0.000000 )     5.22809656
  WF centre and spread    4  (  0.000014, -0.253269,  0.000000 )     5.01078962
  WF centre and spread    5  ( -0.000006,  0.252570, -0.000000 )     5.01040214
  Sum of centres and spreads (  0.000015,  0.004414,  0.000000 )    25.24663220

     83    -0.592E-04     0.0076069515       25.2466321366       1.11  <-- CONV
        O_D=      0.1852913 O_OD=      2.5849611 O_TOT=     25.2466321 <-- SPRD
 Delta: O_D=  0.5828715E-04 O_OD= -0.1174674E-03 O_TOT= -0.5918026E-04 <-- DLTA
 ------------------------------------------------------------------------------
 Cycle:     84
  WF centre and spread    1  (  0.000009,  0.001579, -0.000000 )     4.76909305
  WF centre and spread    2  ( -0.000007, -0.515600,  0.000000 )     5.22805362
  WF centre and spread    3  (  0.000005,  0.519230, -0.000000 )     5.22811024
  WF centre and spread    4  (  0.000014, -0.253361,  0.000000 )     5.01082803
  WF centre and spread    5  ( -0.000006,  0.252572, -0.000000 )     5.01048046
  Sum of centres and spreads (  0.000015,  0.004420,  0.000000 )    25.24656541

     84    -0.668E-04     0.0087373621       25.2465653484       1.12  <-- CONV
        O_D=      0.1853431 O_OD=      2.5848425 O_TOT=     25.2465653 <-- SPRD
 Delta: O_D=  0.5176209E-04 O_OD= -0.1185503E-03 O_TOT= -0.6678825E-04 <-- DLTA
 ------------------------------------------------------------------------------
 Cycle:     85
  WF centre and spread    1  (  0.000009,  0.001579, -0.000000 )     4.76917248
  WF centre and spread    2  ( -0.000007, -0.515612,  0.000000 )     5.22804594
  WF centre and spread    3  (  0.000005,  0.519240, -0.000000 )     5.22810089
  WF centre and spread    4  (  0.000014, -0.253348,  0.000000 )     5.01074322
  WF centre and spread    5  ( -0.000006,  0.252552, -0.000000 )     5.01043992
  Sum of centres and spreads (  0.000015,  0.004412,  0.000000 )    25.24650244

     85    -0.630E-04     0.0121533054       25.2465023790       1.13  <-- CONV
        O_D=      0.1853277 O_OD=      2.5847949 O_TOT=     25.2465024 <-- SPRD
 Delta: O_D= -0.1535559E-04 O_OD= -0.4761380E-04 O_TOT= -0.6296939E-04 <-- DLTA
 ------------------------------------------------------------------------------
 Cycle:     86
  WF centre and spread    1  (  0.000009,  0.001580, -0.000000 )     4.76924955
  WF centre and spread    2  ( -0.000007, -0.515640,  0.000000 )     5.22803250
  WF centre and spread    3  (  0.000005,  0.519266, -0.000000 )     5.22808390
  WF centre and spread    4  (  0.000014, -0.253317,  0.000000 )     5.01063491
  WF centre and spread    5  ( -0.000006,  0.252505, -0.000000 )     5.01044552
  Sum of centres and spreads (  0.000015,  0.004394,  0.000000 )    25.24644639

     86    -0.561E-04     0.0085300622       25.2464463251       1.14  <-- CONV
        O_D=      0.1852986 O_OD=      2.5847679 O_TOT=     25.2464463 <-- SPRD
 Delta: O_D= -0.2910190E-04 O_OD= -0.2695200E-04 O_TOT= -0.5605390E-04 <-- DLTA
 ------------------------------------------------------------------------------
 Cycle:     87
  WF centre and spread    1  (  0.000009,  0.001586, -0.000000 )     4.76909776
  WF centre and spread    2  ( -0.000007, -0.515670,  0.000000 )     5.22802577
  WF centre and spread    3  (  0.000005,  0.519291, -0.000000 )     5.22807411
  WF centre and spread    4  (  0.000015, -0.253290,  0.000000 )     5.01063171
  WF centre and spread    5  ( -0.000007,  0.252464, -0.000000 )     5.01057546
  Sum of centres and spreads (  0.000015,  0.004381,  0.000000 )    25.24640481

     87    -0.416E-04     0.0074580087       25.2464047483       1.14  <-- CONV
        O_D=      0.1852770 O_OD=      2.5847480 O_TOT=     25.2464047 <-- SPRD
 Delta: O_D= -0.2162321E-04 O_OD= -0.1995356E-04 O_TOT= -0.4157677E-04 <-- DLTA
 ------------------------------------------------------------------------------
 Cycle:     88
  WF centre and spread    1  (  0.000009,  0.001599, -0.000000 )     4.76884786
  WF centre and spread    2  ( -0.000007, -0.515691,  0.000000 )     5.22802629
  WF centre and spread    3  (  0.000005,  0.519309, -0.000000 )     5.22807309
  WF centre and spread    4  (  0.000015, -0.253284,  0.000000 )     5.01068549
  WF centre and spread    5  ( -0.000007,  0.252445, -0.000000 )     5.01074286
  Sum of centres and spreads (  0.000015,  0.004378,  0.000000 )    25.24637559

     88    -0.292E-04     0.0061595013       25.2463755285       1.16  <-- CONV
        O_D=      0.1852667 O_OD=      2.5847291 O_TOT=     25.2463755 <-- SPRD
 Delta: O_D= -0.1031455E-04 O_OD= -0.1890524E-04 O_TOT= -0.2921979E-04 <-- DLTA
 ------------------------------------------------------------------------------
 Cycle:     89
  WF centre and spread    1  (  0.000009,  0.001623, -0.000000 )     4.76865801
  WF centre and spread    2  ( -0.000007, -0.515707,  0.000000 )     5.22803063
  WF centre and spread    3  (  0.000005,  0.519321, -0.000000 )     5.22807698
  WF centre and spread    4  (  0.000015, -0.253301,  0.000000 )     5.01070855
  WF centre and spread    5  ( -0.000007,  0.252438, -0.000000 )     5.01087257
  Sum of centres and spreads (  0.000015,  0.004375,  0.000000 )    25.24634675

     89    -0.288E-04     0.0059596673       25.2463466858       1.16  <-- CONV
        O_D=      0.1852556 O_OD=      2.5847113 O_TOT=     25.2463467 <-- SPRD
 Delta: O_D= -0.1108289E-04 O_OD= -0.1775979E-04 O_TOT= -0.2884268E-04 <-- DLTA
 ------------------------------------------------------------------------------
 Cycle:     90
  WF centre and spread    1  (  0.000009,  0.001661, -0.000000 )     4.76864998
  WF centre and spread    2  ( -0.000007, -0.515712,  0.000000 )     5.22803450
  WF centre and spread    3  (  0.000005,  0.519323, -0.000000 )     5.22808150
  WF centre and spread    4  (  0.000015, -0.253346,  0.000000 )     5.01067502
  WF centre and spread    5  ( -0.000007,  0.252446, -0.000000 )     5.01087612
  Sum of centres and spreads (  0.000015,  0.004373,  0.000000 )    25.24631712

     90    -0.296E-04     0.0056983984       25.2463170532       1.18  <-- CONV
        O_D=      0.1852466 O_OD=      2.5846907 O_TOT=     25.2463171 <-- SPRD
 Delta: O_D= -0.8998175E-05 O_OD= -0.2063450E-04 O_TOT= -0.2963268E-04 <-- DLTA
 ------------------------------------------------------------------------------
 Cycle:     91
  WF centre and spread    1  (  0.000009,  0.001666, -0.000000 )     4.76874376
  WF centre and spread    2  ( -0.000007, -0.515707,  0.000000 )     5.22803191
  WF centre and spread    3  (  0.000005,  0.519319, -0.000000 )     5.22807932
  WF centre and spread    4  (  0.000015, -0.253356,  0.000000 )     5.01064508
  WF centre and spread    5  ( -0.000007,  0.252451, -0.000000 )     5.01078952
  Sum of centres and spreads (  0.000015,  0.004374,  0.000000 )    25.24628960

     91    -0.275E-04     0.0080681570       25.2462895358       1.18  <-- CONV
        O_D=      0.1852493 O_OD=      2.5846605 O_TOT=     25.2462895 <-- SPRD
 Delta: O_D=  0.2711418E-05 O_OD= -0.3022878E-04 O_TOT= -0.2751737E-04 <-- DLTA
 ------------------------------------------------------------------------------
 Cycle:     92
  WF centre and spread    1  (  0.000009,  0.001682, -0.000000 )     4.76900853
  WF centre and spread    2  ( -0.000007, -0.515693,  0.000000 )     5.22802659
  WF centre and spread    3  (  0.000005,  0.519307, -0.000000 )     5.22807544
  WF centre and spread    4  (  0.000015, -0.253386,  0.000000 )     5.01055963
  WF centre and spread    5  ( -0.000007,  0.252465, -0.000000 )     5.01059330
  Sum of centres and spreads (  0.000015,  0.004376,  0.000000 )    25.24626349

     92    -0.261E-04     0.0054533510       25.2462634237       1.19  <-- CONV
        O_D=      0.1852598 O_OD=      2.5846239 O_TOT=     25.2462634 <-- SPRD
 Delta: O_D=  0.1048306E-04 O_OD= -0.3659515E-04 O_TOT= -0.2611209E-04 <-- DLTA
 ------------------------------------------------------------------------------
 Cycle:     93
  WF centre and spread    1  (  0.000009,  0.001710, -0.000000 )     4.76932645
  WF centre and spread    2  ( -0.000007, -0.515672,  0.000000 )     5.22802326
  WF centre and spread    3  (  0.000005,  0.519290, -0.000000 )     5.22807449
  WF centre and spread    4  (  0.000015, -0.253435,  0.000000 )     5.01043884
  WF centre and spread    5  ( -0.000007,  0.252486, -0.000000 )     5.01037179
  Sum of centres and spreads (  0.000015,  0.004378,  0.000000 )    25.24623483

     93    -0.287E-04     0.0057248620       25.2462347671       1.20  <-- CONV
        O_D=      0.1852782 O_OD=      2.5845768 O_TOT=     25.2462348 <-- SPRD
 Delta: O_D=  0.1836684E-04 O_OD= -0.4702346E-04 O_TOT= -0.2865663E-04 <-- DLTA
 ------------------------------------------------------------------------------
 Cycle:     94
  WF centre and spread    1  (  0.000009,  0.001761, -0.000000 )     4.76950457
  WF centre and spread    2  ( -0.000007, -0.515643,  0.000000 )     5.22802810
  WF centre and spread    3  (  0.000006,  0.519265, -0.000000 )     5.22808254
  WF centre and spread    4  (  0.000015, -0.253511,  0.000000 )     5.01036430
  WF centre and spread    5  ( -0.000007,  0.252518, -0.000000 )     5.01021227
  Sum of centres and spreads (  0.000015,  0.004389,  0.000000 )    25.24619178

     94    -0.430E-04     0.0062076283       25.2461917196       1.21  <-- CONV
        O_D=      0.1853211 O_OD=      2.5844909 O_TOT=     25.2461917 <-- SPRD
 Delta: O_D=  0.4293846E-04 O_OD= -0.8598596E-04 O_TOT= -0.4304751E-04 <-- DLTA
 ------------------------------------------------------------------------------
 Cycle:     95
  WF centre and spread    1  (  0.000009,  0.001831, -0.000000 )     4.76936841
  WF centre and spread    2  ( -0.000008, -0.515613,  0.000000 )     5.22804496
  WF centre and spread    3  (  0.000006,  0.519241, -0.000000 )     5.22810140
  WF centre and spread    4  (  0.000015, -0.253600,  0.000000 )     5.01039753
  WF centre and spread    5  ( -0.000007,  0.252544, -0.000000 )     5.01022156
  Sum of centres and spreads (  0.000015,  0.004403,  0.000000 )    25.24613387

     95    -0.579E-04     0.0076815273       25.2461338090       1.22  <-- CONV
        O_D=      0.1853806 O_OD=      2.5843735 O_TOT=     25.2461338 <-- SPRD
 Delta: O_D=  0.5945734E-04 O_OD= -0.1173679E-03 O_TOT= -0.5791058E-04 <-- DLTA
 ------------------------------------------------------------------------------
 Cycle:     96
  WF centre and spread    1  (  0.000009,  0.001906, -0.000000 )     4.76916567
  WF centre and spread    2  ( -0.000008, -0.515601,  0.000000 )     5.22805924
  WF centre and spread    3  (  0.000006,  0.519232, -0.000000 )     5.22811443
  WF centre and spread    4  (  0.000015, -0.253671,  0.000000 )     5.01041661
  WF centre and spread    5  ( -0.000008,  0.252542, -0.000000 )     5.01031592
  Sum of centres and spreads (  0.000015,  0.004407,  0.000000 )    25.24607187

     96    -0.620E-04     0.0084994990       25.2460718061       1.23  <-- CONV
        O_D=      0.1854272 O_OD=      2.5842649 O_TOT=     25.2460718 <-- SPRD
 Delta: O_D=  0.4660018E-04 O_OD= -0.1086030E-03 O_TOT= -0.6200285E-04 <-- DLTA
 ------------------------------------------------------------------------------
 Cycle:     97
  WF centre and spread    1  (  0.000009,  0.001906, -0.000000 )     4.76925456
  WF centre and spread    2  ( -0.000008, -0.515613,  0.000000 )     5.22805034
  WF centre and spread    3  (  0.000006,  0.519242, -0.000000 )     5.22810407
  WF centre and spread    4  (  0.000015, -0.253662,  0.000000 )     5.01033613
  WF centre and spread    5  ( -0.000008,  0.252527, -0.000000 )     5.01026794
  Sum of centres and spreads (  0.000015,  0.004401,  0.000000 )    25.24601305

     97    -0.588E-04     0.0117359103       25.2460129882       1.24  <-- CONV
        O_D=      0.1854103 O_OD=      2.5842229 O_TOT=     25.2460130 <-- SPRD
 Delta: O_D= -0.1683648E-04 O_OD= -0.4198142E-04 O_TOT= -0.5881790E-04 <-- DLTA
 ------------------------------------------------------------------------------
 Cycle:     98
  WF centre and spread    1  (  0.000009,  0.001909, -0.000000 )     4.76936554
  WF centre and spread    2  ( -0.000008, -0.515642,  0.000000 )     5.22803408
  WF centre and spread    3  (  0.000006,  0.519268, -0.000000 )     5.22808458
  WF centre and spread    4  (  0.000016, -0.253640,  0.000000 )     5.01022671
  WF centre and spread    5  ( -0.000008,  0.252489, -0.000000 )     5.01024706
  Sum of centres and spreads (  0.000015,  0.004384,  0.000000 )    25.24595797

     98    -0.551E-04     0.0083163904       25.2459579021       1.25  <-- CONV
        O_D=      0.1853759 O_OD=      2.5842022 O_TOT=     25.2459579 <-- SPRD
 Delta: O_D= -0.3439018E-04 O_OD= -0.2069600E-04 O_TOT= -0.5508618E-04 <-- DLTA
 ------------------------------------------------------------------------------
 Cycle:     99
  WF centre and spread    1  (  0.000009,  0.001916, -0.000000 )     4.76925286
  WF centre and spread    2  ( -0.000008, -0.515674,  0.000000 )     5.22802595
  WF centre and spread    3  (  0.000006,  0.519295, -0.000000 )     5.22807360
  WF centre and spread    4  (  0.000016, -0.253621,  0.000000 )     5.01021466
  WF centre and spread    5  ( -0.000008,  0.252455, -0.000000 )     5.01034729
  Sum of centres and spreads (  0.000015,  0.004371,  0.000000 )    25.24591437

     99    -0.436E-04     0.0075336889       25.2459143037       1.26  <-- CONV
        O_D=      0.1853475 O_OD=      2.5841871 O_TOT=     25.2459143 <-- SPRD
 Delta: O_D= -0.2843969E-04 O_OD= -0.1515863E-04 O_TOT= -0.4359832E-04 <-- DLTA
 ------------------------------------------------------------------------------
 Cycle:    100
  WF centre and spread    1  (  0.000009,  0.001929, -0.000000 )     4.76903463
  WF centre and spread    2  ( -0.000008, -0.515695,  0.000000 )     5.22802706
  WF centre and spread    3  (  0.000006,  0.519312, -0.000000 )     5.22807349
  WF centre and spread    4  (  0.000016, -0.253619,  0.000000 )     5.01025742
  WF centre and spread    5  ( -0.000008,  0.252441, -0.000000 )     5.01049117
  Sum of centres and spreads (  0.000015,  0.004369,  0.000000 )    25.24588376

    100    -0.306E-04     0.0063538846       25.2458836964       1.27  <-- CONV
        O_D=      0.1853330 O_OD=      2.5841709 O_TOT=     25.2458837 <-- SPRD
 Delta: O_D= -0.1448810E-04 O_OD= -0.1611925E-04 O_TOT= -0.3060735E-04 <-- DLTA
 ------------------------------------------------------------------------------

 Writing checkpoint file MoS2.chk... done

 Final State
  WF centre and spread    1  (  0.000009,  0.001929, -0.000000 )     4.76903463
  WF centre and spread    2  ( -0.000008, -0.515695,  0.000000 )     5.22802706
  WF centre and spread    3  (  0.000006,  0.519312, -0.000000 )     5.22807349
  WF centre and spread    4  (  0.000016, -0.253619,  0.000000 )     5.01025742
  WF centre and spread    5  ( -0.000008,  0.252441, -0.000000 )     5.01049117
  Sum of centres and spreads (  0.000015,  0.004369,  0.000000 )    25.24588376

         Spreads (Ang^2)       Omega I      =    22.476379752
        ================       Omega D      =     0.185333009
                               Omega OD     =     2.584170935
    Final Spread (Ang^2)       Omega Total  =    25.245883696
 ------------------------------------------------------------------------------
 Time for wannierise            0.968 (sec)

 Writing checkpoint file MoS2.chk... done

 *---------------------------------------------------------------------------*
 |                               PLOTTING                                    |
 *---------------------------------------------------------------------------*


 Calculating interpolated band-structure

 Time to calculate interpolated band structure       0.028 (sec)

 Time for plotting              0.048 (sec)
 Total Execution Time           1.332 (sec)

 *===========================================================================*
 |                             TIMING INFORMATION                            |
 *===========================================================================*
 |    Tag                                                Ncalls      Time (s)|
 |---------------------------------------------------------------------------|
 |kmesh: get                                        :         1         0.208|
 |overlap: read                                     :         1         0.084|
 |wann: main                                        :         1         0.968|
 |plot: main                                        :         1         0.048|
 *---------------------------------------------------------------------------*

 All done: wannier90 exiting
