File written on  8Jul2015 at 17:11:02 

calc_only_A  :  F

begin real_lattice
   3.1935845   0.0000000   0.0000000
  -1.5967922   2.7657253   0.0000000
   0.0000000   0.0000000  31.9093857
end real_lattice

begin recip_lattice
   1.9674398   1.1359019  -0.0000000
   0.0000000   2.2718039   0.0000000
   0.0000000  -0.0000000   0.1969071
end recip_lattice

begin kpoints
   225
    0.00000000    0.00000000    0.00000000
    0.00000000    0.06666667    0.00000000
    0.00000000    0.13333333    0.00000000
    0.00000000    0.20000000    0.00000000
    0.00000000    0.26666667    0.00000000
    0.00000000    0.33333333    0.00000000
    0.00000000    0.40000000    0.00000000
    0.00000000    0.46666667    0.00000000
    0.00000000    0.53333333    0.00000000
    0.00000000    0.60000000    0.00000000
    0.00000000    0.66666667    0.00000000
    0.00000000    0.73333333    0.00000000
    0.00000000    0.80000000    0.00000000
    0.00000000    0.86666667    0.00000000
    0.00000000    0.93333333    0.00000000
    0.06666667    0.00000000    0.00000000
    0.06666667    0.06666667    0.00000000
    0.06666667    0.13333333    0.00000000
    0.06666667    0.20000000    0.00000000
    0.06666667    0.26666667    0.00000000
    0.06666667    0.33333333    0.00000000
    0.06666667    0.40000000    0.00000000
    0.06666667    0.46666667    0.00000000
    0.06666667    0.53333333    0.00000000
    0.06666667    0.60000000    0.00000000
    0.06666667    0.66666667    0.00000000
    0.06666667    0.73333333    0.00000000
    0.06666667    0.80000000    0.00000000
    0.06666667    0.86666667    0.00000000
    0.06666667    0.93333333    0.00000000
    0.13333333    0.00000000    0.00000000
    0.13333333    0.06666667    0.00000000
    0.13333333    0.13333333    0.00000000
    0.13333333    0.20000000    0.00000000
    0.13333333    0.26666667    0.00000000
    0.13333333    0.33333333    0.00000000
    0.13333333    0.40000000    0.00000000
    0.13333333    0.46666667    0.00000000
    0.13333333    0.53333333    0.00000000
    0.13333333    0.60000000    0.00000000
    0.13333333    0.66666667    0.00000000
    0.13333333    0.73333333    0.00000000
    0.13333333    0.80000000    0.00000000
    0.13333333    0.86666667    0.00000000
    0.13333333    0.93333333    0.00000000
    0.20000000    0.00000000    0.00000000
    0.20000000    0.06666667    0.00000000
    0.20000000    0.13333333    0.00000000
    0.20000000    0.20000000    0.00000000
    0.20000000    0.26666667    0.00000000
    0.20000000    0.33333333    0.00000000
    0.20000000    0.40000000    0.00000000
    0.20000000    0.46666667    0.00000000
    0.20000000    0.53333333    0.00000000
    0.20000000    0.60000000    0.00000000
    0.20000000    0.66666667    0.00000000
    0.20000000    0.73333333    0.00000000
    0.20000000    0.80000000    0.00000000
    0.20000000    0.86666667    0.00000000
    0.20000000    0.93333333    0.00000000
    0.26666667    0.00000000    0.00000000
    0.26666667    0.06666667    0.00000000
    0.26666667    0.13333333    0.00000000
    0.26666667    0.20000000    0.00000000
    0.26666667    0.26666667    0.00000000
    0.26666667    0.33333333    0.00000000
    0.26666667    0.40000000    0.00000000
    0.26666667    0.46666667    0.00000000
    0.26666667    0.53333333    0.00000000
    0.26666667    0.60000000    0.00000000
    0.26666667    0.66666667    0.00000000
    0.26666667    0.73333333    0.00000000
    0.26666667    0.80000000    0.00000000
    0.26666667    0.86666667    0.00000000
    0.26666667    0.93333333    0.00000000
    0.33333333    0.00000000    0.00000000
    0.33333333    0.06666667    0.00000000
    0.33333333    0.13333333    0.00000000
    0.33333333    0.20000000    0.00000000
    0.33333333    0.26666667    0.00000000
    0.33333333    0.33333333    0.00000000
    0.33333333    0.40000000    0.00000000
    0.33333333    0.46666667    0.00000000
    0.33333333    0.53333333    0.00000000
    0.33333333    0.60000000    0.00000000
    0.33333333    0.66666667    0.00000000
    0.33333333    0.73333333    0.00000000
    0.33333333    0.80000000    0.00000000
    0.33333333    0.86666667    0.00000000
    0.33333333    0.93333333    0.00000000
    0.40000000    0.00000000    0.00000000
    0.40000000    0.06666667    0.00000000
    0.40000000    0.13333333    0.00000000
    0.40000000    0.20000000    0.00000000
    0.40000000    0.26666667    0.00000000
    0.40000000    0.33333333    0.00000000
    0.40000000    0.40000000    0.00000000
    0.40000000    0.46666667    0.00000000
    0.40000000    0.53333333    0.00000000
    0.40000000    0.60000000    0.00000000
    0.40000000    0.66666667    0.00000000
    0.40000000    0.73333333    0.00000000
    0.40000000    0.80000000    0.00000000
    0.40000000    0.86666667    0.00000000
    0.40000000    0.93333333    0.00000000
    0.46666667    0.00000000    0.00000000
    0.46666667    0.06666667    0.00000000
    0.46666667    0.13333333    0.00000000
    0.46666667    0.20000000    0.00000000
    0.46666667    0.26666667    0.00000000
    0.46666667    0.33333333    0.00000000
    0.46666667    0.40000000    0.00000000
    0.46666667    0.46666667    0.00000000
    0.46666667    0.53333333    0.00000000
    0.46666667    0.60000000    0.00000000
    0.46666667    0.66666667    0.00000000
    0.46666667    0.73333333    0.00000000
    0.46666667    0.80000000    0.00000000
    0.46666667    0.86666667    0.00000000
    0.46666667    0.93333333    0.00000000
    0.53333333    0.00000000    0.00000000
    0.53333333    0.06666667    0.00000000
    0.53333333    0.13333333    0.00000000
    0.53333333    0.20000000    0.00000000
    0.53333333    0.26666667    0.00000000
    0.53333333    0.33333333    0.00000000
    0.53333333    0.40000000    0.00000000
    0.53333333    0.46666667    0.00000000
    0.53333333    0.53333333    0.00000000
    0.53333333    0.60000000    0.00000000
    0.53333333    0.66666667    0.00000000
    0.53333333    0.73333333    0.00000000
    0.53333333    0.80000000    0.00000000
    0.53333333    0.86666667    0.00000000
    0.53333333    0.93333333    0.00000000
    0.60000000    0.00000000    0.00000000
    0.60000000    0.06666667    0.00000000
    0.60000000    0.13333333    0.00000000
    0.60000000    0.20000000    0.00000000
    0.60000000    0.26666667    0.00000000
    0.60000000    0.33333333    0.00000000
    0.60000000    0.40000000    0.00000000
    0.60000000    0.46666667    0.00000000
    0.60000000    0.53333333    0.00000000
    0.60000000    0.60000000    0.00000000
    0.60000000    0.66666667    0.00000000
    0.60000000    0.73333333    0.00000000
    0.60000000    0.80000000    0.00000000
    0.60000000    0.86666667    0.00000000
    0.60000000    0.93333333    0.00000000
    0.66666667    0.00000000    0.00000000
    0.66666667    0.06666667    0.00000000
    0.66666667    0.13333333    0.00000000
    0.66666667    0.20000000    0.00000000
    0.66666667    0.26666667    0.00000000
    0.66666667    0.33333333    0.00000000
    0.66666667    0.40000000    0.00000000
    0.66666667    0.46666667    0.00000000
    0.66666667    0.53333333    0.00000000
    0.66666667    0.60000000    0.00000000
    0.66666667    0.66666667    0.00000000
    0.66666667    0.73333333    0.00000000
    0.66666667    0.80000000    0.00000000
    0.66666667    0.86666667    0.00000000
    0.66666667    0.93333333    0.00000000
    0.73333333    0.00000000    0.00000000
    0.73333333    0.06666667    0.00000000
    0.73333333    0.13333333    0.00000000
    0.73333333    0.20000000    0.00000000
    0.73333333    0.26666667    0.00000000
    0.73333333    0.33333333    0.00000000
    0.73333333    0.40000000    0.00000000
    0.73333333    0.46666667    0.00000000
    0.73333333    0.53333333    0.00000000
    0.73333333    0.60000000    0.00000000
    0.73333333    0.66666667    0.00000000
    0.73333333    0.73333333    0.00000000
    0.73333333    0.80000000    0.00000000
    0.73333333    0.86666667    0.00000000
    0.73333333    0.93333333    0.00000000
    0.80000000    0.00000000    0.00000000
    0.80000000    0.06666667    0.00000000
    0.80000000    0.13333333    0.00000000
    0.80000000    0.20000000    0.00000000
    0.80000000    0.26666667    0.00000000
    0.80000000    0.33333333    0.00000000
    0.80000000    0.40000000    0.00000000
    0.80000000    0.46666667    0.00000000
    0.80000000    0.53333333    0.00000000
    0.80000000    0.60000000    0.00000000
    0.80000000    0.66666667    0.00000000
    0.80000000    0.73333333    0.00000000
    0.80000000    0.80000000    0.00000000
    0.80000000    0.86666667    0.00000000
    0.80000000    0.93333333    0.00000000
    0.86666667    0.00000000    0.00000000
    0.86666667    0.06666667    0.00000000
    0.86666667    0.13333333    0.00000000
    0.86666667    0.20000000    0.00000000
    0.86666667    0.26666667    0.00000000
    0.86666667    0.33333333    0.00000000
    0.86666667    0.40000000    0.00000000
    0.86666667    0.46666667    0.00000000
    0.86666667    0.53333333    0.00000000
    0.86666667    0.60000000    0.00000000
    0.86666667    0.66666667    0.00000000
    0.86666667    0.73333333    0.00000000
    0.86666667    0.80000000    0.00000000
    0.86666667    0.86666667    0.00000000
    0.86666667    0.93333333    0.00000000
    0.93333333    0.00000000    0.00000000
    0.93333333    0.06666667    0.00000000
    0.93333333    0.13333333    0.00000000
    0.93333333    0.20000000    0.00000000
    0.93333333    0.26666667    0.00000000
    0.93333333    0.33333333    0.00000000
    0.93333333    0.40000000    0.00000000
    0.93333333    0.46666667    0.00000000
    0.93333333    0.53333333    0.00000000
    0.93333333    0.60000000    0.00000000
    0.93333333    0.66666667    0.00000000
    0.93333333    0.73333333    0.00000000
    0.93333333    0.80000000    0.00000000
    0.93333333    0.86666667    0.00000000
    0.93333333    0.93333333    0.00000000
end kpoints

begin projections
     5
   0.00000    0.00000    0.00000     2  1  1
    0.0000000  0.0000000  1.0000000   1.0000000  0.0000000  0.0000000    1.00
   0.00000    0.00000    0.00000     2  2  1
    0.0000000  0.0000000  1.0000000   1.0000000  0.0000000  0.0000000    1.00
   0.00000    0.00000    0.00000     2  3  1
    0.0000000  0.0000000  1.0000000   1.0000000  0.0000000  0.0000000    1.00
   0.00000    0.00000    0.00000     2  4  1
    0.0000000  0.0000000  1.0000000   1.0000000  0.0000000  0.0000000    1.00
   0.00000    0.00000    0.00000     2  5  1
    0.0000000  0.0000000  1.0000000   1.0000000  0.0000000  0.0000000    1.00
end projections

begin nnkpts
   8
     1     2      0   0   0
     1    16      0   0   0
     1    15      0  -1   0
     1    30      0  -1   0
     1   211     -1   0   0
     1   212     -1   0   0
     1     1      0   0   1
     1     1      0   0  -1
     2     1      0   0   0
     2     3      0   0   0
     2    16      0   0   0
     2    17      0   0   0
     2   212     -1   0   0
     2   213     -1   0   0
     2     2      0   0   1
     2     2      0   0  -1
     3     2      0   0   0
     3     4      0   0   0
     3    17      0   0   0
     3    18      0   0   0
     3   213     -1   0   0
     3   214     -1   0   0
     3     3      0   0   1
     3     3      0   0  -1
     4     3      0   0   0
     4     5      0   0   0
     4    18      0   0   0
     4    19      0   0   0
     4   214     -1   0   0
     4   215     -1   0   0
     4     4      0   0   1
     4     4      0   0  -1
     5     4      0   0   0
     5     6      0   0   0
     5    19      0   0   0
     5    20      0   0   0
     5   215     -1   0   0
     5   216     -1   0   0
     5     5      0   0   1
     5     5      0   0  -1
     6     5      0   0   0
     6     7      0   0   0
     6    20      0   0   0
     6    21      0   0   0
     6   216     -1   0   0
     6   217     -1   0   0
     6     6      0   0   1
     6     6      0   0  -1
     7     6      0   0   0
     7     8      0   0   0
     7    21      0   0   0
     7    22      0   0   0
     7   217     -1   0   0
     7   218     -1   0   0
     7     7      0   0   1
     7     7      0   0  -1
     8     7      0   0   0
     8     9      0   0   0
     8    22      0   0   0
     8    23      0   0   0
     8   218     -1   0   0
     8   219     -1   0   0
     8     8      0   0   1
     8     8      0   0  -1
     9     8      0   0   0
     9    10      0   0   0
     9    23      0   0   0
     9    24      0   0   0
     9   219     -1   0   0
     9   220     -1   0   0
     9     9      0   0   1
     9     9      0   0  -1
    10     9      0   0   0
    10    11      0   0   0
    10    24      0   0   0
    10    25      0   0   0
    10   220     -1   0   0
    10   221     -1   0   0
    10    10      0   0   1
    10    10      0   0  -1
    11    10      0   0   0
    11    12      0   0   0
    11    25      0   0   0
    11    26      0   0   0
    11   221     -1   0   0
    11   222     -1   0   0
    11    11      0   0   1
    11    11      0   0  -1
    12    11      0   0   0
    12    13      0   0   0
    12    26      0   0   0
    12    27      0   0   0
    12   222     -1   0   0
    12   223     -1   0   0
    12    12      0   0   1
    12    12      0   0  -1
    13    12      0   0   0
    13    14      0   0   0
    13    27      0   0   0
    13    28      0   0   0
    13   223     -1   0   0
    13   224     -1   0   0
    13    13      0   0   1
    13    13      0   0  -1
    14    13      0   0   0
    14    15      0   0   0
    14    28      0   0   0
    14    29      0   0   0
    14   224     -1   0   0
    14   225     -1   0   0
    14    14      0   0   1
    14    14      0   0  -1
    15    14      0   0   0
    15    29      0   0   0
    15    30      0   0   0
    15     1      0   1   0
    15   211     -1   1   0
    15   225     -1   0   0
    15    15      0   0   1
    15    15      0   0  -1
    16     1      0   0   0
    16     2      0   0   0
    16    17      0   0   0
    16    31      0   0   0
    16    30      0  -1   0
    16    45      0  -1   0
    16    16      0   0   1
    16    16      0   0  -1
    17     2      0   0   0
    17     3      0   0   0
    17    16      0   0   0
    17    18      0   0   0
    17    31      0   0   0
    17    32      0   0   0
    17    17      0   0   1
    17    17      0   0  -1
    18     3      0   0   0
    18     4      0   0   0
    18    17      0   0   0
    18    19      0   0   0
    18    32      0   0   0
    18    33      0   0   0
    18    18      0   0   1
    18    18      0   0  -1
    19     4      0   0   0
    19     5      0   0   0
    19    18      0   0   0
    19    20      0   0   0
    19    33      0   0   0
    19    34      0   0   0
    19    19      0   0   1
    19    19      0   0  -1
    20     5      0   0   0
    20     6      0   0   0
    20    19      0   0   0
    20    21      0   0   0
    20    34      0   0   0
    20    35      0   0   0
    20    20      0   0   1
    20    20      0   0  -1
    21     6      0   0   0
    21     7      0   0   0
    21    20      0   0   0
    21    22      0   0   0
    21    35      0   0   0
    21    36      0   0   0
    21    21      0   0   1
    21    21      0   0  -1
    22     7      0   0   0
    22     8      0   0   0
    22    21      0   0   0
    22    23      0   0   0
    22    36      0   0   0
    22    37      0   0   0
    22    22      0   0   1
    22    22      0   0  -1
    23     8      0   0   0
    23     9      0   0   0
    23    22      0   0   0
    23    24      0   0   0
    23    37      0   0   0
    23    38      0   0   0
    23    23      0   0   1
    23    23      0   0  -1
    24     9      0   0   0
    24    10      0   0   0
    24    23      0   0   0
    24    25      0   0   0
    24    38      0   0   0
    24    39      0   0   0
    24    24      0   0   1
    24    24      0   0  -1
    25    10      0   0   0
    25    11      0   0   0
    25    24      0   0   0
    25    26      0   0   0
    25    39      0   0   0
    25    40      0   0   0
    25    25      0   0   1
    25    25      0   0  -1
    26    11      0   0   0
    26    12      0   0   0
    26    25      0   0   0
    26    27      0   0   0
    26    40      0   0   0
    26    41      0   0   0
    26    26      0   0   1
    26    26      0   0  -1
    27    12      0   0   0
    27    13      0   0   0
    27    26      0   0   0
    27    28      0   0   0
    27    41      0   0   0
    27    42      0   0   0
    27    27      0   0   1
    27    27      0   0  -1
    28    13      0   0   0
    28    14      0   0   0
    28    27      0   0   0
    28    29      0   0   0
    28    42      0   0   0
    28    43      0   0   0
    28    28      0   0   1
    28    28      0   0  -1
    29    14      0   0   0
    29    15      0   0   0
    29    28      0   0   0
    29    30      0   0   0
    29    43      0   0   0
    29    44      0   0   0
    29    29      0   0   1
    29    29      0   0  -1
    30    15      0   0   0
    30    29      0   0   0
    30    44      0   0   0
    30    45      0   0   0
    30     1      0   1   0
    30    16      0   1   0
    30    30      0   0   1
    30    30      0   0  -1
    31    16      0   0   0
    31    17      0   0   0
    31    32      0   0   0
    31    46      0   0   0
    31    45      0  -1   0
    31    60      0  -1   0
    31    31      0   0   1
    31    31      0   0  -1
    32    17      0   0   0
    32    18      0   0   0
    32    31      0   0   0
    32    33      0   0   0
    32    46      0   0   0
    32    47      0   0   0
    32    32      0   0   1
    32    32      0   0  -1
    33    18      0   0   0
    33    19      0   0   0
    33    32      0   0   0
    33    34      0   0   0
    33    47      0   0   0
    33    48      0   0   0
    33    33      0   0   1
    33    33      0   0  -1
    34    19      0   0   0
    34    20      0   0   0
    34    33      0   0   0
    34    35      0   0   0
    34    48      0   0   0
    34    49      0   0   0
    34    34      0   0   1
    34    34      0   0  -1
    35    20      0   0   0
    35    21      0   0   0
    35    34      0   0   0
    35    36      0   0   0
    35    49      0   0   0
    35    50      0   0   0
    35    35      0   0   1
    35    35      0   0  -1
    36    21      0   0   0
    36    22      0   0   0
    36    35      0   0   0
    36    37      0   0   0
    36    50      0   0   0
    36    51      0   0   0
    36    36      0   0   1
    36    36      0   0  -1
    37    22      0   0   0
    37    23      0   0   0
    37    36      0   0   0
    37    38      0   0   0
    37    51      0   0   0
    37    52      0   0   0
    37    37      0   0   1
    37    37      0   0  -1
    38    23      0   0   0
    38    24      0   0   0
    38    37      0   0   0
    38    39      0   0   0
    38    52      0   0   0
    38    53      0   0   0
    38    38      0   0   1
    38    38      0   0  -1
    39    24      0   0   0
    39    25      0   0   0
    39    38      0   0   0
    39    40      0   0   0
    39    53      0   0   0
    39    54      0   0   0
    39    39      0   0   1
    39    39      0   0  -1
    40    25      0   0   0
    40    26      0   0   0
    40    39      0   0   0
    40    41      0   0   0
    40    54      0   0   0
    40    55      0   0   0
    40    40      0   0   1
    40    40      0   0  -1
    41    26      0   0   0
    41    27      0   0   0
    41    40      0   0   0
    41    42      0   0   0
    41    55      0   0   0
    41    56      0   0   0
    41    41      0   0   1
    41    41      0   0  -1
    42    27      0   0   0
    42    28      0   0   0
    42    41      0   0   0
    42    43      0   0   0
    42    56      0   0   0
    42    57      0   0   0
    42    42      0   0   1
    42    42      0   0  -1
    43    28      0   0   0
    43    29      0   0   0
    43    42      0   0   0
    43    44      0   0   0
    43    57      0   0   0
    43    58      0   0   0
    43    43      0   0   1
    43    43      0   0  -1
    44    29      0   0   0
    44    30      0   0   0
    44    43      0   0   0
    44    45      0   0   0
    44    58      0   0   0
    44    59      0   0   0
    44    44      0   0   1
    44    44      0   0  -1
    45    30      0   0   0
    45    44      0   0   0
    45    59      0   0   0
    45    60      0   0   0
    45    16      0   1   0
    45    31      0   1   0
    45    45      0   0   1
    45    45      0   0  -1
    46    31      0   0   0
    46    32      0   0   0
    46    47      0   0   0
    46    61      0   0   0
    46    60      0  -1   0
    46    75      0  -1   0
    46    46      0   0   1
    46    46      0   0  -1
    47    32      0   0   0
    47    33      0   0   0
    47    46      0   0   0
    47    48      0   0   0
    47    61      0   0   0
    47    62      0   0   0
    47    47      0   0   1
    47    47      0   0  -1
    48    33      0   0   0
    48    34      0   0   0
    48    47      0   0   0
    48    49      0   0   0
    48    62      0   0   0
    48    63      0   0   0
    48    48      0   0   1
    48    48      0   0  -1
    49    34      0   0   0
    49    35      0   0   0
    49    48      0   0   0
    49    50      0   0   0
    49    63      0   0   0
    49    64      0   0   0
    49    49      0   0   1
    49    49      0   0  -1
    50    35      0   0   0
    50    36      0   0   0
    50    49      0   0   0
    50    51      0   0   0
    50    64      0   0   0
    50    65      0   0   0
    50    50      0   0   1
    50    50      0   0  -1
    51    36      0   0   0
    51    37      0   0   0
    51    50      0   0   0
    51    52      0   0   0
    51    65      0   0   0
    51    66      0   0   0
    51    51      0   0   1
    51    51      0   0  -1
    52    37      0   0   0
    52    38      0   0   0
    52    51      0   0   0
    52    53      0   0   0
    52    66      0   0   0
    52    67      0   0   0
    52    52      0   0   1
    52    52      0   0  -1
    53    38      0   0   0
    53    39      0   0   0
    53    52      0   0   0
    53    54      0   0   0
    53    67      0   0   0
    53    68      0   0   0
    53    53      0   0   1
    53    53      0   0  -1
    54    39      0   0   0
    54    40      0   0   0
    54    53      0   0   0
    54    55      0   0   0
    54    68      0   0   0
    54    69      0   0   0
    54    54      0   0   1
    54    54      0   0  -1
    55    40      0   0   0
    55    41      0   0   0
    55    54      0   0   0
    55    56      0   0   0
    55    69      0   0   0
    55    70      0   0   0
    55    55      0   0   1
    55    55      0   0  -1
    56    41      0   0   0
    56    42      0   0   0
    56    55      0   0   0
    56    57      0   0   0
    56    70      0   0   0
    56    71      0   0   0
    56    56      0   0   1
    56    56      0   0  -1
    57    42      0   0   0
    57    43      0   0   0
    57    56      0   0   0
    57    58      0   0   0
    57    71      0   0   0
    57    72      0   0   0
    57    57      0   0   1
    57    57      0   0  -1
    58    43      0   0   0
    58    44      0   0   0
    58    57      0   0   0
    58    59      0   0   0
    58    72      0   0   0
    58    73      0   0   0
    58    58      0   0   1
    58    58      0   0  -1
    59    44      0   0   0
    59    45      0   0   0
    59    58      0   0   0
    59    60      0   0   0
    59    73      0   0   0
    59    74      0   0   0
    59    59      0   0   1
    59    59      0   0  -1
    60    45      0   0   0
    60    59      0   0   0
    60    74      0   0   0
    60    75      0   0   0
    60    31      0   1   0
    60    46      0   1   0
    60    60      0   0   1
    60    60      0   0  -1
    61    46      0   0   0
    61    47      0   0   0
    61    62      0   0   0
    61    76      0   0   0
    61    75      0  -1   0
    61    90      0  -1   0
    61    61      0   0   1
    61    61      0   0  -1
    62    47      0   0   0
    62    48      0   0   0
    62    61      0   0   0
    62    63      0   0   0
    62    76      0   0   0
    62    77      0   0   0
    62    62      0   0   1
    62    62      0   0  -1
    63    48      0   0   0
    63    49      0   0   0
    63    62      0   0   0
    63    64      0   0   0
    63    77      0   0   0
    63    78      0   0   0
    63    63      0   0   1
    63    63      0   0  -1
    64    49      0   0   0
    64    50      0   0   0
    64    63      0   0   0
    64    65      0   0   0
    64    78      0   0   0
    64    79      0   0   0
    64    64      0   0   1
    64    64      0   0  -1
    65    50      0   0   0
    65    51      0   0   0
    65    64      0   0   0
    65    66      0   0   0
    65    79      0   0   0
    65    80      0   0   0
    65    65      0   0   1
    65    65      0   0  -1
    66    51      0   0   0
    66    52      0   0   0
    66    65      0   0   0
    66    67      0   0   0
    66    80      0   0   0
    66    81      0   0   0
    66    66      0   0   1
    66    66      0   0  -1
    67    52      0   0   0
    67    53      0   0   0
    67    66      0   0   0
    67    68      0   0   0
    67    81      0   0   0
    67    82      0   0   0
    67    67      0   0   1
    67    67      0   0  -1
    68    53      0   0   0
    68    54      0   0   0
    68    67      0   0   0
    68    69      0   0   0
    68    82      0   0   0
    68    83      0   0   0
    68    68      0   0   1
    68    68      0   0  -1
    69    54      0   0   0
    69    55      0   0   0
    69    68      0   0   0
    69    70      0   0   0
    69    83      0   0   0
    69    84      0   0   0
    69    69      0   0   1
    69    69      0   0  -1
    70    55      0   0   0
    70    56      0   0   0
    70    69      0   0   0
    70    71      0   0   0
    70    84      0   0   0
    70    85      0   0   0
    70    70      0   0   1
    70    70      0   0  -1
    71    56      0   0   0
    71    57      0   0   0
    71    70      0   0   0
    71    72      0   0   0
    71    85      0   0   0
    71    86      0   0   0
    71    71      0   0   1
    71    71      0   0  -1
    72    57      0   0   0
    72    58      0   0   0
    72    71      0   0   0
    72    73      0   0   0
    72    86      0   0   0
    72    87      0   0   0
    72    72      0   0   1
    72    72      0   0  -1
    73    58      0   0   0
    73    59      0   0   0
    73    72      0   0   0
    73    74      0   0   0
    73    87      0   0   0
    73    88      0   0   0
    73    73      0   0   1
    73    73      0   0  -1
    74    59      0   0   0
    74    60      0   0   0
    74    73      0   0   0
    74    75      0   0   0
    74    88      0   0   0
    74    89      0   0   0
    74    74      0   0   1
    74    74      0   0  -1
    75    60      0   0   0
    75    74      0   0   0
    75    89      0   0   0
    75    90      0   0   0
    75    46      0   1   0
    75    61      0   1   0
    75    75      0   0   1
    75    75      0   0  -1
    76    61      0   0   0
    76    62      0   0   0
    76    77      0   0   0
    76    91      0   0   0
    76    90      0  -1   0
    76   105      0  -1   0
    76    76      0   0   1
    76    76      0   0  -1
    77    62      0   0   0
    77    63      0   0   0
    77    76      0   0   0
    77    78      0   0   0
    77    91      0   0   0
    77    92      0   0   0
    77    77      0   0   1
    77    77      0   0  -1
    78    63      0   0   0
    78    64      0   0   0
    78    77      0   0   0
    78    79      0   0   0
    78    92      0   0   0
    78    93      0   0   0
    78    78      0   0   1
    78    78      0   0  -1
    79    64      0   0   0
    79    65      0   0   0
    79    78      0   0   0
    79    80      0   0   0
    79    93      0   0   0
    79    94      0   0   0
    79    79      0   0   1
    79    79      0   0  -1
    80    65      0   0   0
    80    66      0   0   0
    80    79      0   0   0
    80    81      0   0   0
    80    94      0   0   0
    80    95      0   0   0
    80    80      0   0   1
    80    80      0   0  -1
    81    66      0   0   0
    81    67      0   0   0
    81    80      0   0   0
    81    82      0   0   0
    81    95      0   0   0
    81    96      0   0   0
    81    81      0   0   1
    81    81      0   0  -1
    82    67      0   0   0
    82    68      0   0   0
    82    81      0   0   0
    82    83      0   0   0
    82    96      0   0   0
    82    97      0   0   0
    82    82      0   0   1
    82    82      0   0  -1
    83    68      0   0   0
    83    69      0   0   0
    83    82      0   0   0
    83    84      0   0   0
    83    97      0   0   0
    83    98      0   0   0
    83    83      0   0   1
    83    83      0   0  -1
    84    69      0   0   0
    84    70      0   0   0
    84    83      0   0   0
    84    85      0   0   0
    84    98      0   0   0
    84    99      0   0   0
    84    84      0   0   1
    84    84      0   0  -1
    85    70      0   0   0
    85    71      0   0   0
    85    84      0   0   0
    85    86      0   0   0
    85    99      0   0   0
    85   100      0   0   0
    85    85      0   0   1
    85    85      0   0  -1
    86    71      0   0   0
    86    72      0   0   0
    86    85      0   0   0
    86    87      0   0   0
    86   100      0   0   0
    86   101      0   0   0
    86    86      0   0   1
    86    86      0   0  -1
    87    72      0   0   0
    87    73      0   0   0
    87    86      0   0   0
    87    88      0   0   0
    87   101      0   0   0
    87   102      0   0   0
    87    87      0   0   1
    87    87      0   0  -1
    88    73      0   0   0
    88    74      0   0   0
    88    87      0   0   0
    88    89      0   0   0
    88   102      0   0   0
    88   103      0   0   0
    88    88      0   0   1
    88    88      0   0  -1
    89    74      0   0   0
    89    75      0   0   0
    89    88      0   0   0
    89    90      0   0   0
    89   103      0   0   0
    89   104      0   0   0
    89    89      0   0   1
    89    89      0   0  -1
    90    75      0   0   0
    90    89      0   0   0
    90   104      0   0   0
    90   105      0   0   0
    90    61      0   1   0
    90    76      0   1   0
    90    90      0   0   1
    90    90      0   0  -1
    91    76      0   0   0
    91    77      0   0   0
    91    92      0   0   0
    91   106      0   0   0
    91   105      0  -1   0
    91   120      0  -1   0
    91    91      0   0   1
    91    91      0   0  -1
    92    77      0   0   0
    92    78      0   0   0
    92    91      0   0   0
    92    93      0   0   0
    92   106      0   0   0
    92   107      0   0   0
    92    92      0   0   1
    92    92      0   0  -1
    93    78      0   0   0
    93    79      0   0   0
    93    92      0   0   0
    93    94      0   0   0
    93   107      0   0   0
    93   108      0   0   0
    93    93      0   0   1
    93    93      0   0  -1
    94    79      0   0   0
    94    80      0   0   0
    94    93      0   0   0
    94    95      0   0   0
    94   108      0   0   0
    94   109      0   0   0
    94    94      0   0   1
    94    94      0   0  -1
    95    80      0   0   0
    95    81      0   0   0
    95    94      0   0   0
    95    96      0   0   0
    95   109      0   0   0
    95   110      0   0   0
    95    95      0   0   1
    95    95      0   0  -1
    96    81      0   0   0
    96    82      0   0   0
    96    95      0   0   0
    96    97      0   0   0
    96   110      0   0   0
    96   111      0   0   0
    96    96      0   0   1
    96    96      0   0  -1
    97    82      0   0   0
    97    83      0   0   0
    97    96      0   0   0
    97    98      0   0   0
    97   111      0   0   0
    97   112      0   0   0
    97    97      0   0   1
    97    97      0   0  -1
    98    83      0   0   0
    98    84      0   0   0
    98    97      0   0   0
    98    99      0   0   0
    98   112      0   0   0
    98   113      0   0   0
    98    98      0   0   1
    98    98      0   0  -1
    99    84      0   0   0
    99    85      0   0   0
    99    98      0   0   0
    99   100      0   0   0
    99   113      0   0   0
    99   114      0   0   0
    99    99      0   0   1
    99    99      0   0  -1
   100    85      0   0   0
   100    86      0   0   0
   100    99      0   0   0
   100   101      0   0   0
   100   114      0   0   0
   100   115      0   0   0
   100   100      0   0   1
   100   100      0   0  -1
   101    86      0   0   0
   101    87      0   0   0
   101   100      0   0   0
   101   102      0   0   0
   101   115      0   0   0
   101   116      0   0   0
   101   101      0   0   1
   101   101      0   0  -1
   102    87      0   0   0
   102    88      0   0   0
   102   101      0   0   0
   102   103      0   0   0
   102   116      0   0   0
   102   117      0   0   0
   102   102      0   0   1
   102   102      0   0  -1
   103    88      0   0   0
   103    89      0   0   0
   103   102      0   0   0
   103   104      0   0   0
   103   117      0   0   0
   103   118      0   0   0
   103   103      0   0   1
   103   103      0   0  -1
   104    89      0   0   0
   104    90      0   0   0
   104   103      0   0   0
   104   105      0   0   0
   104   118      0   0   0
   104   119      0   0   0
   104   104      0   0   1
   104   104      0   0  -1
   105    90      0   0   0
   105   104      0   0   0
   105   119      0   0   0
   105   120      0   0   0
   105    76      0   1   0
   105    91      0   1   0
   105   105      0   0   1
   105   105      0   0  -1
   106    91      0   0   0
   106    92      0   0   0
   106   107      0   0   0
   106   121      0   0   0
   106   120      0  -1   0
   106   135      0  -1   0
   106   106      0   0   1
   106   106      0   0  -1
   107    92      0   0   0
   107    93      0   0   0
   107   106      0   0   0
   107   108      0   0   0
   107   121      0   0   0
   107   122      0   0   0
   107   107      0   0   1
   107   107      0   0  -1
   108    93      0   0   0
   108    94      0   0   0
   108   107      0   0   0
   108   109      0   0   0
   108   122      0   0   0
   108   123      0   0   0
   108   108      0   0   1
   108   108      0   0  -1
   109    94      0   0   0
   109    95      0   0   0
   109   108      0   0   0
   109   110      0   0   0
   109   123      0   0   0
   109   124      0   0   0
   109   109      0   0   1
   109   109      0   0  -1
   110    95      0   0   0
   110    96      0   0   0
   110   109      0   0   0
   110   111      0   0   0
   110   124      0   0   0
   110   125      0   0   0
   110   110      0   0   1
   110   110      0   0  -1
   111    96      0   0   0
   111    97      0   0   0
   111   110      0   0   0
   111   112      0   0   0
   111   125      0   0   0
   111   126      0   0   0
   111   111      0   0   1
   111   111      0   0  -1
   112    97      0   0   0
   112    98      0   0   0
   112   111      0   0   0
   112   113      0   0   0
   112   126      0   0   0
   112   127      0   0   0
   112   112      0   0   1
   112   112      0   0  -1
   113    98      0   0   0
   113    99      0   0   0
   113   112      0   0   0
   113   114      0   0   0
   113   127      0   0   0
   113   128      0   0   0
   113   113      0   0   1
   113   113      0   0  -1
   114    99      0   0   0
   114   100      0   0   0
   114   113      0   0   0
   114   115      0   0   0
   114   128      0   0   0
   114   129      0   0   0
   114   114      0   0   1
   114   114      0   0  -1
   115   100      0   0   0
   115   101      0   0   0
   115   114      0   0   0
   115   116      0   0   0
   115   129      0   0   0
   115   130      0   0   0
   115   115      0   0   1
   115   115      0   0  -1
   116   101      0   0   0
   116   102      0   0   0
   116   115      0   0   0
   116   117      0   0   0
   116   130      0   0   0
   116   131      0   0   0
   116   116      0   0   1
   116   116      0   0  -1
   117   102      0   0   0
   117   103      0   0   0
   117   116      0   0   0
   117   118      0   0   0
   117   131      0   0   0
   117   132      0   0   0
   117   117      0   0   1
   117   117      0   0  -1
   118   103      0   0   0
   118   104      0   0   0
   118   117      0   0   0
   118   119      0   0   0
   118   132      0   0   0
   118   133      0   0   0
   118   118      0   0   1
   118   118      0   0  -1
   119   104      0   0   0
   119   105      0   0   0
   119   118      0   0   0
   119   120      0   0   0
   119   133      0   0   0
   119   134      0   0   0
   119   119      0   0   1
   119   119      0   0  -1
   120   105      0   0   0
   120   119      0   0   0
   120   134      0   0   0
   120   135      0   0   0
   120    91      0   1   0
   120   106      0   1   0
   120   120      0   0   1
   120   120      0   0  -1
   121   106      0   0   0
   121   107      0   0   0
   121   122      0   0   0
   121   136      0   0   0
   121   135      0  -1   0
   121   150      0  -1   0
   121   121      0   0   1
   121   121      0   0  -1
   122   107      0   0   0
   122   108      0   0   0
   122   121      0   0   0
   122   123      0   0   0
   122   136      0   0   0
   122   137      0   0   0
   122   122      0   0   1
   122   122      0   0  -1
   123   108      0   0   0
   123   109      0   0   0
   123   122      0   0   0
   123   124      0   0   0
   123   137      0   0   0
   123   138      0   0   0
   123   123      0   0   1
   123   123      0   0  -1
   124   109      0   0   0
   124   110      0   0   0
   124   123      0   0   0
   124   125      0   0   0
   124   138      0   0   0
   124   139      0   0   0
   124   124      0   0   1
   124   124      0   0  -1
   125   110      0   0   0
   125   111      0   0   0
   125   124      0   0   0
   125   126      0   0   0
   125   139      0   0   0
   125   140      0   0   0
   125   125      0   0   1
   125   125      0   0  -1
   126   111      0   0   0
   126   112      0   0   0
   126   125      0   0   0
   126   127      0   0   0
   126   140      0   0   0
   126   141      0   0   0
   126   126      0   0   1
   126   126      0   0  -1
   127   112      0   0   0
   127   113      0   0   0
   127   126      0   0   0
   127   128      0   0   0
   127   141      0   0   0
   127   142      0   0   0
   127   127      0   0   1
   127   127      0   0  -1
   128   113      0   0   0
   128   114      0   0   0
   128   127      0   0   0
   128   129      0   0   0
   128   142      0   0   0
   128   143      0   0   0
   128   128      0   0   1
   128   128      0   0  -1
   129   114      0   0   0
   129   115      0   0   0
   129   128      0   0   0
   129   130      0   0   0
   129   143      0   0   0
   129   144      0   0   0
   129   129      0   0   1
   129   129      0   0  -1
   130   115      0   0   0
   130   116      0   0   0
   130   129      0   0   0
   130   131      0   0   0
   130   144      0   0   0
   130   145      0   0   0
   130   130      0   0   1
   130   130      0   0  -1
   131   116      0   0   0
   131   117      0   0   0
   131   130      0   0   0
   131   132      0   0   0
   131   145      0   0   0
   131   146      0   0   0
   131   131      0   0   1
   131   131      0   0  -1
   132   117      0   0   0
   132   118      0   0   0
   132   131      0   0   0
   132   133      0   0   0
   132   146      0   0   0
   132   147      0   0   0
   132   132      0   0   1
   132   132      0   0  -1
   133   118      0   0   0
   133   119      0   0   0
   133   132      0   0   0
   133   134      0   0   0
   133   147      0   0   0
   133   148      0   0   0
   133   133      0   0   1
   133   133      0   0  -1
   134   119      0   0   0
   134   120      0   0   0
   134   133      0   0   0
   134   135      0   0   0
   134   148      0   0   0
   134   149      0   0   0
   134   134      0   0   1
   134   134      0   0  -1
   135   120      0   0   0
   135   134      0   0   0
   135   149      0   0   0
   135   150      0   0   0
   135   106      0   1   0
   135   121      0   1   0
   135   135      0   0   1
   135   135      0   0  -1
   136   121      0   0   0
   136   122      0   0   0
   136   137      0   0   0
   136   151      0   0   0
   136   150      0  -1   0
   136   165      0  -1   0
   136   136      0   0   1
   136   136      0   0  -1
   137   122      0   0   0
   137   123      0   0   0
   137   136      0   0   0
   137   138      0   0   0
   137   151      0   0   0
   137   152      0   0   0
   137   137      0   0   1
   137   137      0   0  -1
   138   123      0   0   0
   138   124      0   0   0
   138   137      0   0   0
   138   139      0   0   0
   138   152      0   0   0
   138   153      0   0   0
   138   138      0   0   1
   138   138      0   0  -1
   139   124      0   0   0
   139   125      0   0   0
   139   138      0   0   0
   139   140      0   0   0
   139   153      0   0   0
   139   154      0   0   0
   139   139      0   0   1
   139   139      0   0  -1
   140   125      0   0   0
   140   126      0   0   0
   140   139      0   0   0
   140   141      0   0   0
   140   154      0   0   0
   140   155      0   0   0
   140   140      0   0   1
   140   140      0   0  -1
   141   126      0   0   0
   141   127      0   0   0
   141   140      0   0   0
   141   142      0   0   0
   141   155      0   0   0
   141   156      0   0   0
   141   141      0   0   1
   141   141      0   0  -1
   142   127      0   0   0
   142   128      0   0   0
   142   141      0   0   0
   142   143      0   0   0
   142   156      0   0   0
   142   157      0   0   0
   142   142      0   0   1
   142   142      0   0  -1
   143   128      0   0   0
   143   129      0   0   0
   143   142      0   0   0
   143   144      0   0   0
   143   157      0   0   0
   143   158      0   0   0
   143   143      0   0   1
   143   143      0   0  -1
   144   129      0   0   0
   144   130      0   0   0
   144   143      0   0   0
   144   145      0   0   0
   144   158      0   0   0
   144   159      0   0   0
   144   144      0   0   1
   144   144      0   0  -1
   145   130      0   0   0
   145   131      0   0   0
   145   144      0   0   0
   145   146      0   0   0
   145   159      0   0   0
   145   160      0   0   0
   145   145      0   0   1
   145   145      0   0  -1
   146   131      0   0   0
   146   132      0   0   0
   146   145      0   0   0
   146   147      0   0   0
   146   160      0   0   0
   146   161      0   0   0
   146   146      0   0   1
   146   146      0   0  -1
   147   132      0   0   0
   147   133      0   0   0
   147   146      0   0   0
   147   148      0   0   0
   147   161      0   0   0
   147   162      0   0   0
   147   147      0   0   1
   147   147      0   0  -1
   148   133      0   0   0
   148   134      0   0   0
   148   147      0   0   0
   148   149      0   0   0
   148   162      0   0   0
   148   163      0   0   0
   148   148      0   0   1
   148   148      0   0  -1
   149   134      0   0   0
   149   135      0   0   0
   149   148      0   0   0
   149   150      0   0   0
   149   163      0   0   0
   149   164      0   0   0
   149   149      0   0   1
   149   149      0   0  -1
   150   135      0   0   0
   150   149      0   0   0
   150   164      0   0   0
   150   165      0   0   0
   150   121      0   1   0
   150   136      0   1   0
   150   150      0   0   1
   150   150      0   0  -1
   151   136      0   0   0
   151   137      0   0   0
   151   152      0   0   0
   151   166      0   0   0
   151   165      0  -1   0
   151   180      0  -1   0
   151   151      0   0   1
   151   151      0   0  -1
   152   137      0   0   0
   152   138      0   0   0
   152   151      0   0   0
   152   153      0   0   0
   152   166      0   0   0
   152   167      0   0   0
   152   152      0   0   1
   152   152      0   0  -1
   153   138      0   0   0
   153   139      0   0   0
   153   152      0   0   0
   153   154      0   0   0
   153   167      0   0   0
   153   168      0   0   0
   153   153      0   0   1
   153   153      0   0  -1
   154   139      0   0   0
   154   140      0   0   0
   154   153      0   0   0
   154   155      0   0   0
   154   168      0   0   0
   154   169      0   0   0
   154   154      0   0   1
   154   154      0   0  -1
   155   140      0   0   0
   155   141      0   0   0
   155   154      0   0   0
   155   156      0   0   0
   155   169      0   0   0
   155   170      0   0   0
   155   155      0   0   1
   155   155      0   0  -1
   156   141      0   0   0
   156   142      0   0   0
   156   155      0   0   0
   156   157      0   0   0
   156   170      0   0   0
   156   171      0   0   0
   156   156      0   0   1
   156   156      0   0  -1
   157   142      0   0   0
   157   143      0   0   0
   157   156      0   0   0
   157   158      0   0   0
   157   171      0   0   0
   157   172      0   0   0
   157   157      0   0   1
   157   157      0   0  -1
   158   143      0   0   0
   158   144      0   0   0
   158   157      0   0   0
   158   159      0   0   0
   158   172      0   0   0
   158   173      0   0   0
   158   158      0   0   1
   158   158      0   0  -1
   159   144      0   0   0
   159   145      0   0   0
   159   158      0   0   0
   159   160      0   0   0
   159   173      0   0   0
   159   174      0   0   0
   159   159      0   0   1
   159   159      0   0  -1
   160   145      0   0   0
   160   146      0   0   0
   160   159      0   0   0
   160   161      0   0   0
   160   174      0   0   0
   160   175      0   0   0
   160   160      0   0   1
   160   160      0   0  -1
   161   146      0   0   0
   161   147      0   0   0
   161   160      0   0   0
   161   162      0   0   0
   161   175      0   0   0
   161   176      0   0   0
   161   161      0   0   1
   161   161      0   0  -1
   162   147      0   0   0
   162   148      0   0   0
   162   161      0   0   0
   162   163      0   0   0
   162   176      0   0   0
   162   177      0   0   0
   162   162      0   0   1
   162   162      0   0  -1
   163   148      0   0   0
   163   149      0   0   0
   163   162      0   0   0
   163   164      0   0   0
   163   177      0   0   0
   163   178      0   0   0
   163   163      0   0   1
   163   163      0   0  -1
   164   149      0   0   0
   164   150      0   0   0
   164   163      0   0   0
   164   165      0   0   0
   164   178      0   0   0
   164   179      0   0   0
   164   164      0   0   1
   164   164      0   0  -1
   165   150      0   0   0
   165   164      0   0   0
   165   179      0   0   0
   165   180      0   0   0
   165   136      0   1   0
   165   151      0   1   0
   165   165      0   0   1
   165   165      0   0  -1
   166   151      0   0   0
   166   152      0   0   0
   166   167      0   0   0
   166   181      0   0   0
   166   180      0  -1   0
   166   195      0  -1   0
   166   166      0   0   1
   166   166      0   0  -1
   167   152      0   0   0
   167   153      0   0   0
   167   166      0   0   0
   167   168      0   0   0
   167   181      0   0   0
   167   182      0   0   0
   167   167      0   0   1
   167   167      0   0  -1
   168   153      0   0   0
   168   154      0   0   0
   168   167      0   0   0
   168   169      0   0   0
   168   182      0   0   0
   168   183      0   0   0
   168   168      0   0   1
   168   168      0   0  -1
   169   154      0   0   0
   169   155      0   0   0
   169   168      0   0   0
   169   170      0   0   0
   169   183      0   0   0
   169   184      0   0   0
   169   169      0   0   1
   169   169      0   0  -1
   170   155      0   0   0
   170   156      0   0   0
   170   169      0   0   0
   170   171      0   0   0
   170   184      0   0   0
   170   185      0   0   0
   170   170      0   0   1
   170   170      0   0  -1
   171   156      0   0   0
   171   157      0   0   0
   171   170      0   0   0
   171   172      0   0   0
   171   185      0   0   0
   171   186      0   0   0
   171   171      0   0   1
   171   171      0   0  -1
   172   157      0   0   0
   172   158      0   0   0
   172   171      0   0   0
   172   173      0   0   0
   172   186      0   0   0
   172   187      0   0   0
   172   172      0   0   1
   172   172      0   0  -1
   173   158      0   0   0
   173   159      0   0   0
   173   172      0   0   0
   173   174      0   0   0
   173   187      0   0   0
   173   188      0   0   0
   173   173      0   0   1
   173   173      0   0  -1
   174   159      0   0   0
   174   160      0   0   0
   174   173      0   0   0
   174   175      0   0   0
   174   188      0   0   0
   174   189      0   0   0
   174   174      0   0   1
   174   174      0   0  -1
   175   160      0   0   0
   175   161      0   0   0
   175   174      0   0   0
   175   176      0   0   0
   175   189      0   0   0
   175   190      0   0   0
   175   175      0   0   1
   175   175      0   0  -1
   176   161      0   0   0
   176   162      0   0   0
   176   175      0   0   0
   176   177      0   0   0
   176   190      0   0   0
   176   191      0   0   0
   176   176      0   0   1
   176   176      0   0  -1
   177   162      0   0   0
   177   163      0   0   0
   177   176      0   0   0
   177   178      0   0   0
   177   191      0   0   0
   177   192      0   0   0
   177   177      0   0   1
   177   177      0   0  -1
   178   163      0   0   0
   178   164      0   0   0
   178   177      0   0   0
   178   179      0   0   0
   178   192      0   0   0
   178   193      0   0   0
   178   178      0   0   1
   178   178      0   0  -1
   179   164      0   0   0
   179   165      0   0   0
   179   178      0   0   0
   179   180      0   0   0
   179   193      0   0   0
   179   194      0   0   0
   179   179      0   0   1
   179   179      0   0  -1
   180   165      0   0   0
   180   179      0   0   0
   180   194      0   0   0
   180   195      0   0   0
   180   151      0   1   0
   180   166      0   1   0
   180   180      0   0   1
   180   180      0   0  -1
   181   166      0   0   0
   181   167      0   0   0
   181   182      0   0   0
   181   196      0   0   0
   181   195      0  -1   0
   181   210      0  -1   0
   181   181      0   0   1
   181   181      0   0  -1
   182   167      0   0   0
   182   168      0   0   0
   182   181      0   0   0
   182   183      0   0   0
   182   196      0   0   0
   182   197      0   0   0
   182   182      0   0   1
   182   182      0   0  -1
   183   168      0   0   0
   183   169      0   0   0
   183   182      0   0   0
   183   184      0   0   0
   183   197      0   0   0
   183   198      0   0   0
   183   183      0   0   1
   183   183      0   0  -1
   184   169      0   0   0
   184   170      0   0   0
   184   183      0   0   0
   184   185      0   0   0
   184   198      0   0   0
   184   199      0   0   0
   184   184      0   0   1
   184   184      0   0  -1
   185   170      0   0   0
   185   171      0   0   0
   185   184      0   0   0
   185   186      0   0   0
   185   199      0   0   0
   185   200      0   0   0
   185   185      0   0   1
   185   185      0   0  -1
   186   171      0   0   0
   186   172      0   0   0
   186   185      0   0   0
   186   187      0   0   0
   186   200      0   0   0
   186   201      0   0   0
   186   186      0   0   1
   186   186      0   0  -1
   187   172      0   0   0
   187   173      0   0   0
   187   186      0   0   0
   187   188      0   0   0
   187   201      0   0   0
   187   202      0   0   0
   187   187      0   0   1
   187   187      0   0  -1
   188   173      0   0   0
   188   174      0   0   0
   188   187      0   0   0
   188   189      0   0   0
   188   202      0   0   0
   188   203      0   0   0
   188   188      0   0   1
   188   188      0   0  -1
   189   174      0   0   0
   189   175      0   0   0
   189   188      0   0   0
   189   190      0   0   0
   189   203      0   0   0
   189   204      0   0   0
   189   189      0   0   1
   189   189      0   0  -1
   190   175      0   0   0
   190   176      0   0   0
   190   189      0   0   0
   190   191      0   0   0
   190   204      0   0   0
   190   205      0   0   0
   190   190      0   0   1
   190   190      0   0  -1
   191   176      0   0   0
   191   177      0   0   0
   191   190      0   0   0
   191   192      0   0   0
   191   205      0   0   0
   191   206      0   0   0
   191   191      0   0   1
   191   191      0   0  -1
   192   177      0   0   0
   192   178      0   0   0
   192   191      0   0   0
   192   193      0   0   0
   192   206      0   0   0
   192   207      0   0   0
   192   192      0   0   1
   192   192      0   0  -1
   193   178      0   0   0
   193   179      0   0   0
   193   192      0   0   0
   193   194      0   0   0
   193   207      0   0   0
   193   208      0   0   0
   193   193      0   0   1
   193   193      0   0  -1
   194   179      0   0   0
   194   180      0   0   0
   194   193      0   0   0
   194   195      0   0   0
   194   208      0   0   0
   194   209      0   0   0
   194   194      0   0   1
   194   194      0   0  -1
   195   180      0   0   0
   195   194      0   0   0
   195   209      0   0   0
   195   210      0   0   0
   195   166      0   1   0
   195   181      0   1   0
   195   195      0   0   1
   195   195      0   0  -1
   196   181      0   0   0
   196   182      0   0   0
   196   197      0   0   0
   196   211      0   0   0
   196   210      0  -1   0
   196   225      0  -1   0
   196   196      0   0   1
   196   196      0   0  -1
   197   182      0   0   0
   197   183      0   0   0
   197   196      0   0   0
   197   198      0   0   0
   197   211      0   0   0
   197   212      0   0   0
   197   197      0   0   1
   197   197      0   0  -1
   198   183      0   0   0
   198   184      0   0   0
   198   197      0   0   0
   198   199      0   0   0
   198   212      0   0   0
   198   213      0   0   0
   198   198      0   0   1
   198   198      0   0  -1
   199   184      0   0   0
   199   185      0   0   0
   199   198      0   0   0
   199   200      0   0   0
   199   213      0   0   0
   199   214      0   0   0
   199   199      0   0   1
   199   199      0   0  -1
   200   185      0   0   0
   200   186      0   0   0
   200   199      0   0   0
   200   201      0   0   0
   200   214      0   0   0
   200   215      0   0   0
   200   200      0   0   1
   200   200      0   0  -1
   201   186      0   0   0
   201   187      0   0   0
   201   200      0   0   0
   201   202      0   0   0
   201   215      0   0   0
   201   216      0   0   0
   201   201      0   0   1
   201   201      0   0  -1
   202   187      0   0   0
   202   188      0   0   0
   202   201      0   0   0
   202   203      0   0   0
   202   216      0   0   0
   202   217      0   0   0
   202   202      0   0   1
   202   202      0   0  -1
   203   188      0   0   0
   203   189      0   0   0
   203   202      0   0   0
   203   204      0   0   0
   203   217      0   0   0
   203   218      0   0   0
   203   203      0   0   1
   203   203      0   0  -1
   204   189      0   0   0
   204   190      0   0   0
   204   203      0   0   0
   204   205      0   0   0
   204   218      0   0   0
   204   219      0   0   0
   204   204      0   0   1
   204   204      0   0  -1
   205   190      0   0   0
   205   191      0   0   0
   205   204      0   0   0
   205   206      0   0   0
   205   219      0   0   0
   205   220      0   0   0
   205   205      0   0   1
   205   205      0   0  -1
   206   191      0   0   0
   206   192      0   0   0
   206   205      0   0   0
   206   207      0   0   0
   206   220      0   0   0
   206   221      0   0   0
   206   206      0   0   1
   206   206      0   0  -1
   207   192      0   0   0
   207   193      0   0   0
   207   206      0   0   0
   207   208      0   0   0
   207   221      0   0   0
   207   222      0   0   0
   207   207      0   0   1
   207   207      0   0  -1
   208   193      0   0   0
   208   194      0   0   0
   208   207      0   0   0
   208   209      0   0   0
   208   222      0   0   0
   208   223      0   0   0
   208   208      0   0   1
   208   208      0   0  -1
   209   194      0   0   0
   209   195      0   0   0
   209   208      0   0   0
   209   210      0   0   0
   209   223      0   0   0
   209   224      0   0   0
   209   209      0   0   1
   209   209      0   0  -1
   210   195      0   0   0
   210   209      0   0   0
   210   224      0   0   0
   210   225      0   0   0
   210   181      0   1   0
   210   196      0   1   0
   210   210      0   0   1
   210   210      0   0  -1
   211   196      0   0   0
   211   197      0   0   0
   211   212      0   0   0
   211     1      1   0   0
   211    15      1  -1   0
   211   225      0  -1   0
   211   211      0   0   1
   211   211      0   0  -1
   212   197      0   0   0
   212   198      0   0   0
   212   211      0   0   0
   212   213      0   0   0
   212     1      1   0   0
   212     2      1   0   0
   212   212      0   0   1
   212   212      0   0  -1
   213   198      0   0   0
   213   199      0   0   0
   213   212      0   0   0
   213   214      0   0   0
   213     2      1   0   0
   213     3      1   0   0
   213   213      0   0   1
   213   213      0   0  -1
   214   199      0   0   0
   214   200      0   0   0
   214   213      0   0   0
   214   215      0   0   0
   214     3      1   0   0
   214     4      1   0   0
   214   214      0   0   1
   214   214      0   0  -1
   215   200      0   0   0
   215   201      0   0   0
   215   214      0   0   0
   215   216      0   0   0
   215     4      1   0   0
   215     5      1   0   0
   215   215      0   0   1
   215   215      0   0  -1
   216   201      0   0   0
   216   202      0   0   0
   216   215      0   0   0
   216   217      0   0   0
   216     5      1   0   0
   216     6      1   0   0
   216   216      0   0   1
   216   216      0   0  -1
   217   202      0   0   0
   217   203      0   0   0
   217   216      0   0   0
   217   218      0   0   0
   217     6      1   0   0
   217     7      1   0   0
   217   217      0   0   1
   217   217      0   0  -1
   218   203      0   0   0
   218   204      0   0   0
   218   217      0   0   0
   218   219      0   0   0
   218     7      1   0   0
   218     8      1   0   0
   218   218      0   0   1
   218   218      0   0  -1
   219   204      0   0   0
   219   205      0   0   0
   219   218      0   0   0
   219   220      0   0   0
   219     8      1   0   0
   219     9      1   0   0
   219   219      0   0   1
   219   219      0   0  -1
   220   205      0   0   0
   220   206      0   0   0
   220   219      0   0   0
   220   221      0   0   0
   220     9      1   0   0
   220    10      1   0   0
   220   220      0   0   1
   220   220      0   0  -1
   221   206      0   0   0
   221   207      0   0   0
   221   220      0   0   0
   221   222      0   0   0
   221    10      1   0   0
   221    11      1   0   0
   221   221      0   0   1
   221   221      0   0  -1
   222   207      0   0   0
   222   208      0   0   0
   222   221      0   0   0
   222   223      0   0   0
   222    11      1   0   0
   222    12      1   0   0
   222   222      0   0   1
   222   222      0   0  -1
   223   208      0   0   0
   223   209      0   0   0
   223   222      0   0   0
   223   224      0   0   0
   223    12      1   0   0
   223    13      1   0   0
   223   223      0   0   1
   223   223      0   0  -1
   224   209      0   0   0
   224   210      0   0   0
   224   223      0   0   0
   224   225      0   0   0
   224    13      1   0   0
   224    14      1   0   0
   224   224      0   0   1
   224   224      0   0  -1
   225   210      0   0   0
   225   224      0   0   0
   225    14      1   0   0
   225    15      1   0   0
   225   196      0   1   0
   225   211      0   1   0
   225   225      0   0   1
   225   225      0   0  -1
end nnkpts

begin exclude_bands
  12
   1
   2
   3
   4
   5
   6
   7
   8
   9
  10
  11
  12
end exclude_bands
