
     Program PWSCF v.5.1.2 starts on  8Jul2015 at 14: 4:53 

     This program is part of the open-source Quantum ESPRESSO suite
     for quantum simulation of materials; please cite
         "P. Giannozzi et al., J. Phys.:Condens. Matter 21 395502 (2009);
          URL http://www.quantum-espresso.org", 
     in publications or presentations arising from this work. More details at
     http://www.quantum-espresso.org/quote

     Parallel version (MPI & OpenMP), running on      24 processor cores
     Number of MPI processes:                24
     Threads/MPI process:                     1
     R & G space division:  proc/nbgrp/npool/nimage =      24
     Waiting for input...
     Reading input from standard input

     Current dimensions of program PWSCF are:
     Max number of different atomic species (ntypx) = 10
     Max number of k-points (npk) =  40000
     Max angular momentum in pseudopotentials (lmaxx) =  3
               file Mo.pbe-spn-kjpaw_psl.0.2.UPF: wavefunction(s)  4D renormalized
               file S.pbe-n-kjpaw_psl.0.1.UPF: wavefunction(s)  3P renormalized

     Subspace diagonalization in iterative solution of the eigenvalue problem:
     scalapack distributed-memory algorithm (size of sub-group:  3*  3 procs)

 
     Parallelization info
     --------------------
     sticks:   dense  smooth     PW     G-vecs:    dense   smooth      PW
     Min          46      16      5                12650     2657     453
     Max          47      17      6                12683     2703     492
     Sum        1123     397    121               304061    64287   11079
 


     bravais-lattice index     =            4
     lattice parameter (alat)  =       6.0100  a.u.
     unit-cell volume          =    1886.2398 (a.u.)^3
     number of atoms/cell      =            3
     number of atomic types    =            2
     number of electrons       =        26.00
     number of Kohn-Sham states=           17
     kinetic-energy cutoff     =      40.0000  Ry
     charge density cutoff     =     450.0000  Ry
     convergence threshold     =      1.0E-10
     mixing beta               =       0.3000
     number of iterations used =            8  plain     mixing
     Exchange-correlation      =  SLA  PW   PBX  PBC ( 1  4  3  4 0 0)
     nstep                     =           50


     celldm(1)=   6.010000  celldm(2)=   0.000000  celldm(3)=  10.033278
     celldm(4)=   0.000000  celldm(5)=   0.000000  celldm(6)=   0.000000

     crystal axes: (cart. coord. in units of alat)
               a(1) = (   1.000000   0.000000   0.000000 )  
               a(2) = (  -0.500000   0.866025   0.000000 )  
               a(3) = (   0.000000   0.000000  10.033278 )  

     reciprocal axes: (cart. coord. in units 2 pi/alat)
               b(1) = (  1.000000  0.577350  0.000000 )  
               b(2) = (  0.000000  1.154701  0.000000 )  
               b(3) = (  0.000000  0.000000  0.099668 )  


     PseudoPot. # 1 for Mo read from file:
     /global/homes/c/chunjing/espresso/pseudo/Mo.pbe-spn-kjpaw_psl.0.2.UPF
     MD5 check sum: 4d55e26c65023fa7f2775461318ed04e
     Pseudo is Projector augmented-wave + core cor, Zval = 14.0
     Generated using "atomic" code by A. Dal Corso  v.5.0.2 svn rev. 9415
     Shape of augmentation charge: PSQ
     Using radial grid of 1229 points,  6 beta functions with: 
                l(1) =   0
                l(2) =   0
                l(3) =   1
                l(4) =   1
                l(5) =   2
                l(6) =   2
     Q(r) pseudized with 0 coefficients 


     PseudoPot. # 2 for  S read from file:
     /global/homes/c/chunjing/espresso/pseudo/S.pbe-n-kjpaw_psl.0.1.UPF
     MD5 check sum: 4d0aa7498161b95d6b336a838fdb998f
     Pseudo is Projector augmented-wave + core cor, Zval =  6.0
     Generated using "atomic" code by A. Dal Corso  v.5.0.2 svn rev. 9415
     Shape of augmentation charge: PSQ
     Using radial grid of 1151 points,  4 beta functions with: 
                l(1) =   0
                l(2) =   0
                l(3) =   1
                l(4) =   1
     Q(r) pseudized with 0 coefficients 


     atomic species   valence    mass     pseudopotential
        Mo            14.00     1.00000     Mo( 1.00)
        S              6.00     1.00000      S( 1.00)

     12 Sym. Ops. (no inversion) found



   Cartesian axes

     site n.     atom                  positions (alat units)
         1           Mo  tau(   1) = (   0.0000000   0.0000000   0.0000000  )
         2           S   tau(   2) = (  -0.0000005   0.5773506   9.4680934  )
         3           S   tau(   3) = (  -0.0000005   0.5773506   0.5651846  )

     number of k points=    27  Methfessel-Paxton smearing, width (Ry)=  0.0500
                       cart. coord. in units 2pi/alat
        k(    1) = (   0.0000000   0.0000000   0.0000000), wk =   0.0088889
        k(    2) = (   0.0000000   0.0769800   0.0000000), wk =   0.0533333
        k(    3) = (   0.0000000   0.1539601   0.0000000), wk =   0.0533333
        k(    4) = (   0.0000000   0.2309401   0.0000000), wk =   0.0533333
        k(    5) = (   0.0000000   0.3079201   0.0000000), wk =   0.0533333
        k(    6) = (   0.0000000   0.3849002   0.0000000), wk =   0.0533333
        k(    7) = (   0.0000000   0.4618802   0.0000000), wk =   0.0533333
        k(    8) = (   0.0000000   0.5388603   0.0000000), wk =   0.0533333
        k(    9) = (   0.0666667   0.1154701   0.0000000), wk =   0.0533333
        k(   10) = (   0.0666667   0.1924501   0.0000000), wk =   0.1066667
        k(   11) = (   0.0666667   0.2694301   0.0000000), wk =   0.1066667
        k(   12) = (   0.0666667   0.3464102   0.0000000), wk =   0.1066667
        k(   13) = (   0.0666667   0.4233902   0.0000000), wk =   0.1066667
        k(   14) = (   0.0666667   0.5003702   0.0000000), wk =   0.1066667
        k(   15) = (   0.0666667   0.5773503   0.0000000), wk =   0.0533333
        k(   16) = (   0.1333333   0.2309401   0.0000000), wk =   0.0533333
        k(   17) = (   0.1333333   0.3079201   0.0000000), wk =   0.1066667
        k(   18) = (   0.1333333   0.3849002   0.0000000), wk =   0.1066667
        k(   19) = (   0.1333333   0.4618802   0.0000000), wk =   0.1066667
        k(   20) = (   0.1333333   0.5388603   0.0000000), wk =   0.1066667
        k(   21) = (   0.2000000   0.3464102   0.0000000), wk =   0.0533333
        k(   22) = (   0.2000000   0.4233902   0.0000000), wk =   0.1066667
        k(   23) = (   0.2000000   0.5003702   0.0000000), wk =   0.1066667
        k(   24) = (   0.2000000   0.5773503   0.0000000), wk =   0.0533333
        k(   25) = (   0.2666667   0.4618802   0.0000000), wk =   0.0533333
        k(   26) = (   0.2666667   0.5388603   0.0000000), wk =   0.1066667
        k(   27) = (   0.3333333   0.5773503   0.0000000), wk =   0.0177778

     Dense  grid:   304061 G-vectors     FFT dimensions: (  45,  45, 432)

     Smooth grid:    64287 G-vectors     FFT dimensions: (  25,  25, 243)

     Largest allocated arrays     est. size (Mb)     dimensions
        Kohn-Sham Wavefunctions         0.10 Mb     (     372,   17)
        NL pseudopotentials             0.19 Mb     (     372,   34)
        Each V/rho on FFT grid          0.56 Mb     (   36450)
        Each G-vector array             0.10 Mb     (   12669)
        G-vector shells                 0.04 Mb     (    5856)
     Largest temporary arrays     est. size (Mb)     dimensions
        Auxiliary wavefunctions         0.39 Mb     (     372,   68)
        Each subspace H/S matrix        0.01 Mb     (      22,   22)
        Each <psi_i|beta_j> matrix      0.01 Mb     (      34,   17)
        Arrays for rho mixing           4.45 Mb     (   36450,    8)

     Initial potential from superposition of free atoms
     Check: negative starting charge=   -0.000732

     starting charge   25.99864, renormalised to   26.00000

     negative rho (up, down):  7.321E-04 0.000E+00
     Starting wfc are   21 randomized atomic wfcs
     Checking if some PAW data can be deallocated... 

     total cpu time spent up to now is        2.1 secs

     per-process dynamical memory:    23.2 Mb

     Self-consistent Calculation

     iteration #  1     ecut=    40.00 Ry     beta=0.30
     Davidson diagonalization with overlap
     ethr =  1.00E-02,  avg # of iterations =  2.5

     negative rho (up, down):  7.003E-04 0.000E+00

     total cpu time spent up to now is        3.1 secs

     total energy              =    -496.40645563 Ry
     Harris-Foulkes estimate   =    -496.74353079 Ry
     estimated scf accuracy    <       0.73980512 Ry

     iteration #  2     ecut=    40.00 Ry     beta=0.30
     Davidson diagonalization with overlap
     ethr =  2.85E-03,  avg # of iterations =  2.4

     negative rho (up, down):  7.517E-04 0.000E+00

     total cpu time spent up to now is        4.0 secs

     total energy              =    -496.43779262 Ry
     Harris-Foulkes estimate   =    -496.79555547 Ry
     estimated scf accuracy    <       1.72733172 Ry

     iteration #  3     ecut=    40.00 Ry     beta=0.30
     Davidson diagonalization with overlap
     ethr =  2.85E-03,  avg # of iterations =  2.0

     negative rho (up, down):  7.871E-04 0.000E+00

     total cpu time spent up to now is        4.9 secs

     total energy              =    -496.61530710 Ry
     Harris-Foulkes estimate   =    -496.63337639 Ry
     estimated scf accuracy    <       0.04697346 Ry

     iteration #  4     ecut=    40.00 Ry     beta=0.30
     Davidson diagonalization with overlap
     ethr =  1.81E-04,  avg # of iterations =  2.6

     negative rho (up, down):  7.536E-04 0.000E+00

     total cpu time spent up to now is        5.9 secs

     total energy              =    -496.62572286 Ry
     Harris-Foulkes estimate   =    -496.62859503 Ry
     estimated scf accuracy    <       0.00617851 Ry

     iteration #  5     ecut=    40.00 Ry     beta=0.30
     Davidson diagonalization with overlap
     ethr =  2.38E-05,  avg # of iterations =  2.0

     negative rho (up, down):  7.827E-04 0.000E+00

     total cpu time spent up to now is        6.9 secs

     total energy              =    -496.62683417 Ry
     Harris-Foulkes estimate   =    -496.62728578 Ry
     estimated scf accuracy    <       0.00211019 Ry

     iteration #  6     ecut=    40.00 Ry     beta=0.30
     Davidson diagonalization with overlap
     ethr =  8.12E-06,  avg # of iterations =  2.0

     negative rho (up, down):  7.730E-04 0.000E+00

     total cpu time spent up to now is        7.8 secs

     total energy              =    -496.62697142 Ry
     Harris-Foulkes estimate   =    -496.62714661 Ry
     estimated scf accuracy    <       0.00076033 Ry

     iteration #  7     ecut=    40.00 Ry     beta=0.30
     Davidson diagonalization with overlap
     ethr =  2.92E-06,  avg # of iterations =  1.3

     negative rho (up, down):  7.725E-04 0.000E+00

     total cpu time spent up to now is        8.6 secs

     total energy              =    -496.62706554 Ry
     Harris-Foulkes estimate   =    -496.62706763 Ry
     estimated scf accuracy    <       0.00001680 Ry

     iteration #  8     ecut=    40.00 Ry     beta=0.30
     Davidson diagonalization with overlap
     ethr =  6.46E-08,  avg # of iterations =  3.0

     negative rho (up, down):  7.699E-04 0.000E+00

     total cpu time spent up to now is        9.7 secs

     total energy              =    -496.62706720 Ry
     Harris-Foulkes estimate   =    -496.62707237 Ry
     estimated scf accuracy    <       0.00001888 Ry

     iteration #  9     ecut=    40.00 Ry     beta=0.30
     Davidson diagonalization with overlap
     ethr =  6.46E-08,  avg # of iterations =  1.9

     negative rho (up, down):  7.687E-04 0.000E+00

     total cpu time spent up to now is       10.5 secs

     total energy              =    -496.62706983 Ry
     Harris-Foulkes estimate   =    -496.62707038 Ry
     estimated scf accuracy    <       0.00000219 Ry

     iteration # 10     ecut=    40.00 Ry     beta=0.30
     Davidson diagonalization with overlap
     ethr =  8.42E-09,  avg # of iterations =  2.0

     negative rho (up, down):  7.682E-04 0.000E+00

     total cpu time spent up to now is       11.4 secs

     total energy              =    -496.62707018 Ry
     Harris-Foulkes estimate   =    -496.62707023 Ry
     estimated scf accuracy    <       0.00000022 Ry

     iteration # 11     ecut=    40.00 Ry     beta=0.30
     Davidson diagonalization with overlap
     ethr =  8.43E-10,  avg # of iterations =  2.3

     negative rho (up, down):  7.680E-04 0.000E+00

     total cpu time spent up to now is       12.4 secs

     total energy              =    -496.62707021 Ry
     Harris-Foulkes estimate   =    -496.62707022 Ry
     estimated scf accuracy    <          8.9E-09 Ry

     iteration # 12     ecut=    40.00 Ry     beta=0.30
     Davidson diagonalization with overlap
     ethr =  3.41E-11,  avg # of iterations =  3.0

     negative rho (up, down):  7.680E-04 0.000E+00

     total cpu time spent up to now is       13.5 secs

     total energy              =    -496.62707022 Ry
     Harris-Foulkes estimate   =    -496.62707022 Ry
     estimated scf accuracy    <          9.7E-10 Ry

     iteration # 13     ecut=    40.00 Ry     beta=0.30
     Davidson diagonalization with overlap
     ethr =  3.75E-12,  avg # of iterations =  2.0

     negative rho (up, down):  7.680E-04 0.000E+00

     total cpu time spent up to now is       14.4 secs

     total energy              =    -496.62707022 Ry
     Harris-Foulkes estimate   =    -496.62707022 Ry
     estimated scf accuracy    <          3.6E-10 Ry

     iteration # 14     ecut=    40.00 Ry     beta=0.30
     Davidson diagonalization with overlap
     ethr =  1.39E-12,  avg # of iterations =  2.7

     negative rho (up, down):  7.681E-04 0.000E+00

     total cpu time spent up to now is       15.4 secs

     total energy              =    -496.62707022 Ry
     Harris-Foulkes estimate   =    -496.62707022 Ry
     estimated scf accuracy    <          1.5E-10 Ry

     iteration # 15     ecut=    40.00 Ry     beta=0.30
     Davidson diagonalization with overlap
     ethr =  5.89E-13,  avg # of iterations =  2.1

     negative rho (up, down):  7.683E-04 0.000E+00

     total cpu time spent up to now is       16.3 secs

     End of self-consistent calculation

          k = 0.0000 0.0000 0.0000 (  7969 PWs)   bands (ev):

   -63.7505 -37.8127 -37.5841 -37.5840 -16.1693 -15.4645  -7.8153  -4.9410
    -4.2133  -4.2133  -3.4272  -3.2693  -3.2693  -0.2814  -0.2814  -0.1004
    -0.1003

          k = 0.0000 0.0770 0.0000 (  7939 PWs)   bands (ev):

   -63.7490 -37.8101 -37.5985 -37.5874 -16.1075 -15.4252  -7.7311  -5.0139
    -4.3773  -4.1483  -3.4162  -3.3730  -3.3284  -0.4998  -0.3397  -0.2218
    -0.0257

          k = 0.0000 0.1540 0.0000 (  8015 PWs)   bands (ev):

   -63.7448 -37.8029 -37.6396 -37.5971 -15.9274 -15.3107  -7.4943  -5.2162
    -4.8172  -3.9656  -3.6364  -3.5609  -3.4136  -0.9373  -0.4842  -0.3972
     0.1500

          k = 0.0000 0.2309 0.0000 (  8025 PWs)   bands (ev):

   -63.7386 -37.7922 -37.6994 -37.6112 -15.6446 -15.1313  -7.1625  -5.5320
    -5.4157  -3.9777  -3.9676  -3.7032  -3.4940  -1.2478  -0.6401  -0.3831
     0.3401

          k = 0.0000 0.3079 0.0000 (  8022 PWs)   bands (ev):

   -63.7315 -37.7800 -37.7673 -37.6274 -15.2878 -14.9067  -6.8911  -6.0082
    -5.9692  -4.4107  -4.2929  -3.6522  -3.4276  -1.2459  -0.7214  -0.1808
     0.4892

          k = 0.0000 0.3849 0.0000 (  8036 PWs)   bands (ev):

   -63.7247 -37.8316 -37.7683 -37.6427 -14.9032 -14.6685  -7.0841  -6.4834
    -6.2292  -4.7134  -4.5662  -3.7144  -3.2153  -0.9853  -0.6707   0.0933
     0.5832

          k = 0.0000 0.4619 0.0000 (  8068 PWs)   bands (ev):

   -63.7194 -37.8816 -37.7591 -37.6548 -14.5611 -14.4619  -7.5584  -6.9405
    -6.2218  -4.8815  -4.7605  -3.5961  -3.1014  -0.6127  -0.5177   0.3328
     0.6320

          k = 0.0000 0.5389 0.0000 (  8060 PWs)   bands (ev):

   -63.7165 -37.9087 -37.7541 -37.6612 -14.3525 -14.3394  -7.8665  -7.2070
    -6.2367  -4.9544  -4.8609  -3.4501  -3.0609  -0.3843  -0.3137   0.4670
     0.6513

          k = 0.0667 0.1155 0.0000 (  7976 PWs)   bands (ev):

   -63.7462 -37.8052 -37.6259 -37.5944 -15.9866 -15.3483  -7.5700  -5.1465
    -4.6754  -4.0286  -3.6448  -3.4086  -3.3879  -0.8161  -0.4493  -0.3793
     0.1078

          k = 0.0667 0.1925 0.0000 (  8013 PWs)   bands (ev):

   -63.7410 -37.7962 -37.6750 -37.6076 -15.7549 -15.2010  -7.2803  -5.3787
    -5.1820  -4.1179  -3.8315  -3.5573  -3.4377  -1.1821  -0.6010  -0.4713
     0.3000

          k = 0.0667 0.2694 0.0000 (  8033 PWs)   bands (ev):

   -63.7343 -37.7848 -37.7371 -37.6245 -15.4342 -14.9981  -6.9521  -5.7707
    -5.7187  -4.6122  -3.8523  -3.7365  -3.4334  -1.3538  -0.6783  -0.3664
     0.4684

          k = 0.0667 0.3464 0.0000 (  8038 PWs)   bands (ev):

   -63.7274 -37.8014 -37.7729 -37.6421 -15.0611 -14.7647  -6.8709  -6.1972
    -6.1820  -4.9453  -4.1892  -3.8526  -3.2632  -1.2620  -0.6035  -0.1272
     0.5796

          k = 0.0667 0.4234 0.0000 (  8053 PWs)   bands (ev):

   -63.7213 -37.8570 -37.7624 -37.6572 -14.6929 -14.5387  -7.2856  -6.7098
    -6.1960  -5.0885  -4.4978  -3.8610  -3.1239  -0.9764  -0.4102   0.1384
     0.6303

          k = 0.0667 0.5004 0.0000 (  8063 PWs)   bands (ev):

   -63.7172 -37.8946 -37.7553 -37.6675 -14.4108 -14.3700  -7.6912  -7.0905
    -6.1983  -5.1077  -4.7372  -3.7692  -3.0251  -0.6304  -0.2281   0.3532
     0.6248

          k = 0.0667 0.5774 0.0000 (  8086 PWs)   bands (ev):

   -63.7158 -37.9078 -37.7528 -37.6712 -14.3067 -14.3029  -7.8479  -7.2300
    -6.2111  -5.0834  -4.8461  -3.7224  -2.9799  -0.4539  -0.1653   0.4552
     0.5944

          k = 0.1333 0.2309 0.0000 (  8046 PWs)   bands (ev):

   -63.7353 -37.7866 -37.7241 -37.6258 -15.4847 -15.0296  -6.9776  -5.6616
    -5.5755  -4.7661  -3.8212  -3.6460  -3.4045  -1.4083  -0.6589  -0.4850
     0.4766

          k = 0.1333 0.3079 0.0000 (  8031 PWs)   bands (ev):

   -63.7288 -37.7788 -37.7754 -37.6478 -15.1453 -14.8155  -6.7467  -6.0932
    -5.8843  -5.2882  -4.0411  -3.8924  -3.2680  -1.4728  -0.5361  -0.3636
     0.6107

          k = 0.1333 0.3849 0.0000 (  8050 PWs)   bands (ev):

   -63.7226 -37.8303 -37.7647 -37.6693 -14.7823 -14.5891  -6.9774  -6.4124
    -6.1449  -5.4491  -4.2561  -4.2269  -3.1521  -1.2885  -0.2994  -0.1750
     0.7026

          k = 0.1333 0.4619 0.0000 (  8080 PWs)   bands (ev):

   -63.7178 -37.8702 -37.7563 -37.6862 -14.4628 -14.3935  -7.3814  -6.8949
    -6.1093  -5.4203  -4.5642  -4.3374  -3.0279  -0.9387  -0.1004  -0.0162
     0.7699

          k = 0.1333 0.5389 0.0000 (  8098 PWs)   bands (ev):

   -63.7151 -37.8919 -37.7517 -37.6955 -14.2777 -14.2701  -7.6374  -7.1684
    -6.1306  -5.3223  -4.8191  -4.3445  -2.9127  -0.6162  -0.0437   0.0651
     0.8104

          k = 0.2000 0.3464 0.0000 (  8030 PWs)   bands (ev):

   -63.7231 -37.8175 -37.7654 -37.6769 -14.8138 -14.6067  -6.8281  -6.1937
    -6.1158  -5.6988  -4.4525  -4.1130  -3.1664  -1.4067  -0.3228  -0.2603
     0.7426

          k = 0.2000 0.4234 0.0000 (  8089 PWs)   bands (ev):

   -63.7181 -37.8481 -37.7568 -37.7053 -14.4933 -14.4062  -7.0985  -6.6938
    -6.0067  -5.7079  -4.8234  -4.4394  -3.0501  -1.1343  -0.2920  -0.0261
     0.8913

          k = 0.2000 0.5004 0.0000 (  8115 PWs)   bands (ev):

   -63.7147 -37.8674 -37.7509 -37.7260 -14.2578 -14.2538  -7.3153  -7.0618
    -6.0172  -5.5845  -5.0173  -4.7679  -2.8848  -0.8086  -0.2909   0.0458
     1.0255

          k = 0.2000 0.5774 0.0000 (  8132 PWs)   bands (ev):

   -63.7135 -37.8739 -37.7489 -37.7335 -14.2024 -14.1638  -7.3971  -7.1939
    -6.0517  -5.4846  -5.0642  -4.9395  -2.7977  -0.6419  -0.2953   0.0211
     1.0798

          k = 0.2667 0.4619 0.0000 (  8124 PWs)   bands (ev):

   -63.7145 -37.8528 -37.7507 -37.7427 -14.2506 -14.2492  -7.1274  -7.0021
    -5.9205  -5.7059  -5.3844  -4.7409  -2.8770  -0.8934  -0.4299   0.0781
     1.1120

          k = 0.2667 0.5389 0.0000 (  8146 PWs)   bands (ev):

   -63.7126 -37.8485 -37.7702 -37.7473 -14.1599 -14.1075  -7.1944  -7.0742
    -6.0163  -5.6441  -5.5843  -5.0088  -2.7109  -0.7195  -0.5186   0.0519
     1.2592

          k = 0.3333 0.5774 0.0000 (  8148 PWs)   bands (ev):

   -63.7118 -37.8234 -37.8041 -37.7460 -14.1240 -14.0549  -7.2464  -6.8286
    -6.2500  -5.7959  -5.5342  -5.1402  -2.6233  -0.7090  -0.6041   0.0425
     1.3520

     the Fermi energy is    -2.4249 ev

!    total energy              =    -496.62707022 Ry
     Harris-Foulkes estimate   =    -496.62707022 Ry
     estimated scf accuracy    <          2.2E-11 Ry

     total all-electron energy =     -9694.958456 Ry

     The total energy is the sum of the following terms:

     one-electron contribution =   -2038.20861090 Ry
     hartree contribution      =    1020.15909404 Ry
     xc contribution           =     -42.25751544 Ry
     ewald contribution        =     870.60029974 Ry
     one-center paw contrib.   =    -306.92813046 Ry
     smearing contrib. (-TS)   =       0.00779279 Ry

     convergence has been achieved in  15 iterations

     Forces acting on atoms (Ry/au):


     negative rho (up, down):  7.683E-04 0.000E+00
     atom    1 type  1   force =     0.00000000   -0.00000000    0.00000000
     atom    2 type  2   force =     0.00000000    0.00000000    0.12195900
     atom    3 type  2   force =     0.00000000    0.00000000   -0.12195900

     Total force =     0.172476     Total SCF correction =     0.000013

     BFGS Geometry Optimization

     number of scf cycles    =   1
     number of bfgs steps    =   0

     energy   new            =    -496.6270702152 Ry

     new trust radius        =       0.1219589983 bohr
     new conv_thr            =            1.0E-10 Ry


ATOMIC_POSITIONS (crystal)
Mo      -0.000000000  -0.000000000   0.000000000
S        0.333333000   0.666667000   0.945691537
S        0.333333000   0.666667000   0.054308463



     Writing output data file MoS2_a601.save
     Check: negative starting charge=   -0.000732
     NEW-OLD atomic charge density approx. for the potential
     Check: negative starting charge=   -0.000740

     negative rho (up, down):  7.806E-04 0.000E+00

     total cpu time spent up to now is       23.1 secs

     per-process dynamical memory:    26.2 Mb

     Self-consistent Calculation

     iteration #  1     ecut=    40.00 Ry     beta=0.30
     Davidson diagonalization with overlap
     ethr =  1.00E-06,  avg # of iterations =  6.0

     negative rho (up, down):  7.788E-04 0.000E+00

     total cpu time spent up to now is       24.9 secs

     total energy              =    -496.65291732 Ry
     Harris-Foulkes estimate   =    -496.64943508 Ry
     estimated scf accuracy    <       0.00234210 Ry

     iteration #  2     ecut=    40.00 Ry     beta=0.30
     Davidson diagonalization with overlap
     ethr =  9.01E-06,  avg # of iterations =  2.1

     negative rho (up, down):  7.790E-04 0.000E+00

     total cpu time spent up to now is       25.8 secs

     total energy              =    -496.65313552 Ry
     Harris-Foulkes estimate   =    -496.65411537 Ry
     estimated scf accuracy    <       0.00455231 Ry

     iteration #  3     ecut=    40.00 Ry     beta=0.30
     Davidson diagonalization with overlap
     ethr =  9.01E-06,  avg # of iterations =  2.0

     negative rho (up, down):  7.754E-04 0.000E+00

     total cpu time spent up to now is       26.7 secs

     total energy              =    -496.65358121 Ry
     Harris-Foulkes estimate   =    -496.65360355 Ry
     estimated scf accuracy    <       0.00012617 Ry

     iteration #  4     ecut=    40.00 Ry     beta=0.30
     Davidson diagonalization with overlap
     ethr =  4.85E-07,  avg # of iterations =  2.1

     negative rho (up, down):  7.753E-04 0.000E+00

     total cpu time spent up to now is       27.6 secs

     total energy              =    -496.65359732 Ry
     Harris-Foulkes estimate   =    -496.65360277 Ry
     estimated scf accuracy    <       0.00002894 Ry

     iteration #  5     ecut=    40.00 Ry     beta=0.30
     Davidson diagonalization with overlap
     ethr =  1.11E-07,  avg # of iterations =  1.0

     negative rho (up, down):  7.754E-04 0.000E+00

     total cpu time spent up to now is       28.4 secs

     total energy              =    -496.65360049 Ry
     Harris-Foulkes estimate   =    -496.65360016 Ry
     estimated scf accuracy    <       0.00000230 Ry

     iteration #  6     ecut=    40.00 Ry     beta=0.30
     Davidson diagonalization with overlap
     ethr =  8.84E-09,  avg # of iterations =  3.0

     negative rho (up, down):  7.753E-04 0.000E+00

     total cpu time spent up to now is       29.4 secs

     total energy              =    -496.65360110 Ry
     Harris-Foulkes estimate   =    -496.65360115 Ry
     estimated scf accuracy    <       0.00000083 Ry

     iteration #  7     ecut=    40.00 Ry     beta=0.30
     Davidson diagonalization with overlap
     ethr =  3.19E-09,  avg # of iterations =  1.0

     negative rho (up, down):  7.753E-04 0.000E+00

     total cpu time spent up to now is       30.2 secs

     total energy              =    -496.65360081 Ry
     Harris-Foulkes estimate   =    -496.65360112 Ry
     estimated scf accuracy    <       0.00000067 Ry

     iteration #  8     ecut=    40.00 Ry     beta=0.30
     Davidson diagonalization with overlap
     ethr =  2.57E-09,  avg # of iterations =  2.0

     negative rho (up, down):  7.753E-04 0.000E+00

     total cpu time spent up to now is       31.2 secs

     total energy              =    -496.65360098 Ry
     Harris-Foulkes estimate   =    -496.65360100 Ry
     estimated scf accuracy    <       0.00000008 Ry

     iteration #  9     ecut=    40.00 Ry     beta=0.30
     Davidson diagonalization with overlap
     ethr =  2.95E-10,  avg # of iterations =  2.0

     negative rho (up, down):  7.754E-04 0.000E+00

     total cpu time spent up to now is       32.1 secs

     total energy              =    -496.65360097 Ry
     Harris-Foulkes estimate   =    -496.65360098 Ry
     estimated scf accuracy    <       0.00000003 Ry

     iteration # 10     ecut=    40.00 Ry     beta=0.30
     Davidson diagonalization with overlap
     ethr =  1.29E-10,  avg # of iterations =  2.0

     negative rho (up, down):  7.754E-04 0.000E+00

     total cpu time spent up to now is       33.0 secs

     total energy              =    -496.65360098 Ry
     Harris-Foulkes estimate   =    -496.65360098 Ry
     estimated scf accuracy    <          2.2E-09 Ry

     iteration # 11     ecut=    40.00 Ry     beta=0.30
     Davidson diagonalization with overlap
     ethr =  8.58E-12,  avg # of iterations =  2.1

     negative rho (up, down):  7.754E-04 0.000E+00

     total cpu time spent up to now is       34.0 secs

     total energy              =    -496.65360098 Ry
     Harris-Foulkes estimate   =    -496.65360098 Ry
     estimated scf accuracy    <          4.6E-10 Ry

     iteration # 12     ecut=    40.00 Ry     beta=0.30
     Davidson diagonalization with overlap
     ethr =  1.76E-12,  avg # of iterations =  2.0

     negative rho (up, down):  7.754E-04 0.000E+00

     total cpu time spent up to now is       35.0 secs

     total energy              =    -496.65360098 Ry
     Harris-Foulkes estimate   =    -496.65360098 Ry
     estimated scf accuracy    <          1.0E-10 Ry

     iteration # 13     ecut=    40.00 Ry     beta=0.30
     Davidson diagonalization with overlap
     ethr =  3.93E-13,  avg # of iterations =  1.6

     negative rho (up, down):  7.755E-04 0.000E+00

     total cpu time spent up to now is       35.8 secs

     End of self-consistent calculation

          k = 0.0000 0.0000 0.0000 (  7969 PWs)   bands (ev):

   -63.7360 -37.8066 -37.5914 -37.5914 -16.3472 -15.5129  -7.9587  -4.8631
    -4.4990  -4.4990  -3.5289  -3.5289  -3.2796  -0.1700  -0.1700  -0.0684
    -0.0684

          k = 0.0000 0.0770 0.0000 (  7939 PWs)   bands (ev):

   -63.7345 -37.8038 -37.6063 -37.5948 -16.2844 -15.4763  -7.8761  -4.9689
    -4.6624  -4.4335  -3.6344  -3.5486  -3.2789  -0.3785  -0.2313  -0.1828
     0.0174

          k = 0.0000 0.1540 0.0000 (  8015 PWs)   bands (ev):

   -63.7302 -37.7961 -37.6486 -37.6048 -16.1015 -15.3698  -7.6450  -5.2424
    -5.0941  -4.2485  -3.9022  -3.6907  -3.3091  -0.7939  -0.3844  -0.3415
     0.2230

          k = 0.0000 0.2309 0.0000 (  8025 PWs)   bands (ev):

   -63.7239 -37.7847 -37.7102 -37.6192 -15.8150 -15.2033  -7.3284  -5.6638
    -5.6299  -4.2389  -4.0114  -3.9791  -3.4404  -1.0835  -0.5549  -0.3013
     0.4528

          k = 0.0000 0.3079 0.0000 (  8022 PWs)   bands (ev):

   -63.7167 -37.7801 -37.7716 -37.6357 -15.4547 -14.9957  -7.1037  -6.1854
    -6.1096  -4.5694  -4.3799  -3.6865  -3.6433  -1.0821  -0.6607  -0.0641
     0.6410

          k = 0.0000 0.3849 0.0000 (  8036 PWs)   bands (ev):

   -63.7097 -37.8463 -37.7591 -37.6514 -15.0680 -14.7767  -7.3249  -6.6247
    -6.3548  -4.8468  -4.6615  -3.7249  -3.4440  -0.8455  -0.6472   0.2437
     0.7665

          k = 0.0000 0.4619 0.0000 (  8068 PWs)   bands (ev):

   -63.7043 -37.8977 -37.7492 -37.6637 -14.7256 -14.5880  -7.7631  -7.0633
    -6.3700  -5.0438  -4.8302  -3.6026  -3.2964  -0.5335  -0.5030   0.5053
     0.8363

          k = 0.0000 0.5389 0.0000 (  8060 PWs)   bands (ev):

   -63.7013 -37.9256 -37.7439 -37.6703 -14.5178 -14.4767  -8.0488  -7.3152
    -6.4014  -5.1457  -4.9064  -3.4465  -3.2352  -0.4244  -0.2214   0.6480
     0.8659

          k = 0.0667 0.1155 0.0000 (  7976 PWs)   bands (ev):

   -63.7316 -37.7986 -37.6345 -37.6020 -16.1615 -15.4047  -7.7185  -5.1498
    -4.9561  -4.3122  -3.8950  -3.5604  -3.2930  -0.6794  -0.3463  -0.3322
     0.1747

          k = 0.0667 0.1925 0.0000 (  8013 PWs)   bands (ev):

   -63.7263 -37.7890 -37.6851 -37.6155 -15.9266 -15.2679  -7.4387  -5.4449
    -5.4448  -4.3419  -4.1059  -3.6740  -3.3694  -1.0243  -0.5080  -0.4103
     0.4078

          k = 0.0667 0.2694 0.0000 (  8033 PWs)   bands (ev):

   -63.7195 -37.7768 -37.7490 -37.6328 -15.6023 -15.0800  -7.1392  -5.9853
    -5.8429  -4.7900  -3.9380  -3.9207  -3.4918  -1.1864  -0.6030  -0.2801
     0.6207

          k = 0.0667 0.3464 0.0000 (  8038 PWs)   bands (ev):

   -63.7124 -37.8152 -37.7640 -37.6508 -15.2265 -14.8647  -7.1187  -6.3466
    -6.3105  -5.0923  -4.2634  -3.9418  -3.4228  -1.1114  -0.5564  -0.0076
     0.7683

          k = 0.0667 0.4234 0.0000 (  8053 PWs)   bands (ev):

   -63.7062 -37.8725 -37.7528 -37.6663 -14.8572 -14.6574  -7.5087  -6.8500
    -6.3309  -5.2374  -4.5633  -3.9400  -3.2648  -0.8662  -0.3902   0.2913
     0.8379

          k = 0.0667 0.5004 0.0000 (  8063 PWs)   bands (ev):

   -63.7020 -37.9111 -37.7452 -37.6768 -14.5756 -14.5036  -7.8812  -7.2145
    -6.3578  -5.2782  -4.7840  -3.8480  -3.1277  -0.5809  -0.2017   0.5392
     0.8269

          k = 0.0667 0.5774 0.0000 (  8086 PWs)   bands (ev):

   -63.7005 -37.9247 -37.7425 -37.6806 -14.4683 -14.4462  -8.0261  -7.3470
    -6.3800  -5.2772  -4.8714  -3.8025  -3.0640  -0.4530  -0.1085   0.6785
     0.7666

          k = 0.1333 0.2309 0.0000 (  8046 PWs)   bands (ev):

   -63.7206 -37.7786 -37.7357 -37.6342 -15.6532 -15.1090  -7.1570  -5.8891
    -5.6786  -4.9731  -4.0256  -3.7207  -3.4384  -1.2394  -0.5785  -0.4169
     0.6351

          k = 0.1333 0.3079 0.0000 (  8031 PWs)   bands (ev):

   -63.7139 -37.7919 -37.7667 -37.6567 -15.3110 -14.9111  -6.9881  -6.2362
    -6.0374  -5.4511  -4.1810  -3.9399  -3.3802  -1.3044  -0.4842  -0.2726
     0.8117

          k = 0.1333 0.3849 0.0000 (  8050 PWs)   bands (ev):

   -63.7076 -37.8449 -37.7552 -37.6787 -14.9464 -14.7026  -7.2241  -6.5825
    -6.2603  -5.5906  -4.3862  -4.2609  -3.2578  -1.1378  -0.2846  -0.0460
     0.9219

          k = 0.1333 0.4619 0.0000 (  8080 PWs)   bands (ev):

   -63.7026 -37.8860 -37.7462 -37.6961 -14.6270 -14.5233  -7.5849  -7.0554
    -6.2575  -5.5679  -4.5867  -4.4597  -3.1046  -0.8271  -0.0983   0.1585
     0.9785

          k = 0.1333 0.5389 0.0000 (  8098 PWs)   bands (ev):

   -63.6999 -37.9083 -37.7414 -37.7056 -14.4352 -14.4176  -7.8155  -7.3201
    -6.3013  -5.4918  -4.8193  -4.4593  -2.9658  -0.5708  -0.0008   0.2745
     0.9983

          k = 0.2000 0.3464 0.0000 (  8030 PWs)   bands (ev):

   -63.7080 -37.8318 -37.7560 -37.6866 -14.9779 -14.7183  -7.0901  -6.3984
    -6.2166  -5.8138  -4.5985  -4.1333  -3.2643  -1.2391  -0.2475  -0.2037
     0.9671

          k = 0.2000 0.4234 0.0000 (  8089 PWs)   bands (ev):

   -63.7029 -37.8633 -37.7468 -37.7157 -14.6572 -14.5336  -7.3201  -6.9011
    -6.1318  -5.8166  -4.9697  -4.4449  -3.1247  -0.9850  -0.1276  -0.0333
     1.1103

          k = 0.2000 0.5004 0.0000 (  8115 PWs)   bands (ev):

   -63.6994 -37.8832 -37.7406 -37.7369 -14.4185 -14.3972  -7.5002  -7.2641
    -6.1789  -5.6985  -5.1499  -4.7610  -2.9366  -0.7238  -0.0895   0.0827
     1.2298

          k = 0.2000 0.5774 0.0000 (  8132 PWs)   bands (ev):

   -63.6982 -37.8899 -37.7446 -37.7384 -14.3464 -14.3291  -7.5669  -7.3939
    -6.2306  -5.6111  -5.1893  -4.9180  -2.8374  -0.6225  -0.0806   0.1189
     1.2773

          k = 0.2667 0.4619 0.0000 (  8124 PWs)   bands (ev):

   -63.6993 -37.8682 -37.7541 -37.7403 -14.4137 -14.3897  -7.3209  -7.2335
    -6.0606  -5.7878  -5.5348  -4.7326  -2.9314  -0.7927  -0.2312   0.1135
     1.3242

          k = 0.2667 0.5389 0.0000 (  8146 PWs)   bands (ev):

   -63.6973 -37.8639 -37.7821 -37.7367 -14.3057 -14.2729  -7.4350  -7.2429
    -6.1875  -5.7819  -5.6569  -4.9925  -2.7473  -0.7196  -0.3023   0.1893
     1.4686

          k = 0.3333 0.5774 0.0000 (  8148 PWs)   bands (ev):

   -63.6965 -37.8397 -37.8155 -37.7353 -14.2721 -14.2206  -7.5013  -6.9871
    -6.4141  -5.9501  -5.5876  -5.1248  -2.6514  -0.7602  -0.3830   0.2364
     1.5650

     the Fermi energy is    -2.5096 ev

!    total energy              =    -496.65360098 Ry
     Harris-Foulkes estimate   =    -496.65360098 Ry
     estimated scf accuracy    <          9.6E-13 Ry

     total all-electron energy =     -9694.984987 Ry

     The total energy is the sum of the following terms:

     one-electron contribution =   -2057.36493120 Ry
     hartree contribution      =    1029.70428340 Ry
     xc contribution           =     -42.33699916 Ry
     ewald contribution        =     880.27131089 Ry
     one-center paw contrib.   =    -306.93344135 Ry
     smearing contrib. (-TS)   =       0.00617644 Ry

     convergence has been achieved in  13 iterations

     Forces acting on atoms (Ry/au):


     negative rho (up, down):  7.755E-04 0.000E+00
     atom    1 type  1   force =     0.00000000    0.00000000    0.00000000
     atom    2 type  2   force =     0.00000000    0.00000000    0.09466059
     atom    3 type  2   force =     0.00000000    0.00000000   -0.09466059

     Total force =     0.133870     Total SCF correction =     0.000001

     number of scf cycles    =   2
     number of bfgs steps    =   1

     energy   old            =    -496.6270702152 Ry
     energy   new            =    -496.6536009785 Ry

     CASE: energy  _new < energy  _old

     new trust radius        =       0.1341548981 bohr
     new conv_thr            =            9.5E-11 Ry


ATOMIC_POSITIONS (crystal)
Mo      -0.000000000  -0.000000000   0.000000000
S        0.333333000   0.666667000   0.947916328
S        0.333333000   0.666667000   0.052083672



     Writing output data file MoS2_a601.save
     Check: negative starting charge=   -0.000740
     NEW-OLD atomic charge density approx. for the potential
     Check: negative starting charge=   -0.000747

     negative rho (up, down):  7.884E-04 0.000E+00

     total cpu time spent up to now is       38.8 secs

     per-process dynamical memory:    26.2 Mb

     Self-consistent Calculation

     iteration #  1     ecut=    40.00 Ry     beta=0.30
     Davidson diagonalization with overlap
     ethr =  1.00E-06,  avg # of iterations =  6.1

     negative rho (up, down):  7.866E-04 0.000E+00

     total cpu time spent up to now is       40.7 secs

     total energy              =    -496.67355987 Ry
     Harris-Foulkes estimate   =    -496.67021074 Ry
     estimated scf accuracy    <       0.00257187 Ry

     iteration #  2     ecut=    40.00 Ry     beta=0.30
     Davidson diagonalization with overlap
     ethr =  9.89E-06,  avg # of iterations =  2.1

     negative rho (up, down):  7.864E-04 0.000E+00

     total cpu time spent up to now is       41.7 secs

     total energy              =    -496.67388407 Ry
     Harris-Foulkes estimate   =    -496.67469370 Ry
     estimated scf accuracy    <       0.00342832 Ry

     iteration #  3     ecut=    40.00 Ry     beta=0.30
     Davidson diagonalization with overlap
     ethr =  9.89E-06,  avg # of iterations =  1.7

     negative rho (up, down):  7.827E-04 0.000E+00

     total cpu time spent up to now is       42.5 secs

     total energy              =    -496.67424607 Ry
     Harris-Foulkes estimate   =    -496.67426906 Ry
     estimated scf accuracy    <       0.00014296 Ry

     iteration #  4     ecut=    40.00 Ry     beta=0.30
     Davidson diagonalization with overlap
     ethr =  5.50E-07,  avg # of iterations =  2.4

     negative rho (up, down):  7.827E-04 0.000E+00

     total cpu time spent up to now is       43.5 secs

     total energy              =    -496.67426375 Ry
     Harris-Foulkes estimate   =    -496.67427166 Ry
     estimated scf accuracy    <       0.00003683 Ry

     iteration #  5     ecut=    40.00 Ry     beta=0.30
     Davidson diagonalization with overlap
     ethr =  1.42E-07,  avg # of iterations =  1.3

     negative rho (up, down):  7.827E-04 0.000E+00

     total cpu time spent up to now is       44.3 secs

     total energy              =    -496.67426827 Ry
     Harris-Foulkes estimate   =    -496.67426773 Ry
     estimated scf accuracy    <       0.00000252 Ry

     iteration #  6     ecut=    40.00 Ry     beta=0.30
     Davidson diagonalization with overlap
     ethr =  9.70E-09,  avg # of iterations =  3.0

     negative rho (up, down):  7.827E-04 0.000E+00

     total cpu time spent up to now is       45.4 secs

     total energy              =    -496.67426884 Ry
     Harris-Foulkes estimate   =    -496.67426890 Ry
     estimated scf accuracy    <       0.00000080 Ry

     iteration #  7     ecut=    40.00 Ry     beta=0.30
     Davidson diagonalization with overlap
     ethr =  3.08E-09,  avg # of iterations =  1.0

     negative rho (up, down):  7.827E-04 0.000E+00

     total cpu time spent up to now is       46.2 secs

     total energy              =    -496.67426861 Ry
     Harris-Foulkes estimate   =    -496.67426887 Ry
     estimated scf accuracy    <       0.00000064 Ry

     iteration #  8     ecut=    40.00 Ry     beta=0.30
     Davidson diagonalization with overlap
     ethr =  2.48E-09,  avg # of iterations =  2.0

     negative rho (up, down):  7.828E-04 0.000E+00

     total cpu time spent up to now is       47.1 secs

     total energy              =    -496.67426876 Ry
     Harris-Foulkes estimate   =    -496.67426877 Ry
     estimated scf accuracy    <       0.00000006 Ry

     iteration #  9     ecut=    40.00 Ry     beta=0.30
     Davidson diagonalization with overlap
     ethr =  2.20E-10,  avg # of iterations =  2.0

     negative rho (up, down):  7.828E-04 0.000E+00

     total cpu time spent up to now is       48.1 secs

     total energy              =    -496.67426875 Ry
     Harris-Foulkes estimate   =    -496.67426876 Ry
     estimated scf accuracy    <       0.00000002 Ry

     iteration # 10     ecut=    40.00 Ry     beta=0.30
     Davidson diagonalization with overlap
     ethr =  8.89E-11,  avg # of iterations =  2.0

     negative rho (up, down):  7.829E-04 0.000E+00

     total cpu time spent up to now is       49.0 secs

     total energy              =    -496.67426876 Ry
     Harris-Foulkes estimate   =    -496.67426876 Ry
     estimated scf accuracy    <          2.4E-09 Ry

     iteration # 11     ecut=    40.00 Ry     beta=0.30
     Davidson diagonalization with overlap
     ethr =  9.08E-12,  avg # of iterations =  2.2

     negative rho (up, down):  7.829E-04 0.000E+00

     total cpu time spent up to now is       49.9 secs

     total energy              =    -496.67426876 Ry
     Harris-Foulkes estimate   =    -496.67426876 Ry
     estimated scf accuracy    <          7.4E-10 Ry

     iteration # 12     ecut=    40.00 Ry     beta=0.30
     Davidson diagonalization with overlap
     ethr =  2.84E-12,  avg # of iterations =  2.0

     negative rho (up, down):  7.829E-04 0.000E+00

     total cpu time spent up to now is       50.9 secs

     total energy              =    -496.67426876 Ry
     Harris-Foulkes estimate   =    -496.67426876 Ry
     estimated scf accuracy    <          1.2E-10 Ry

     iteration # 13     ecut=    40.00 Ry     beta=0.30
     Davidson diagonalization with overlap
     ethr =  4.66E-13,  avg # of iterations =  1.9

     negative rho (up, down):  7.829E-04 0.000E+00

     total cpu time spent up to now is       51.7 secs

     End of self-consistent calculation

          k = 0.0000 0.0000 0.0000 (  7969 PWs)   bands (ev):

   -63.7225 -37.8114 -37.6028 -37.6028 -16.5617 -15.5577  -8.1381  -4.8514
    -4.8514  -4.7585  -3.8351  -3.8350  -3.1026  -0.0404  -0.0403  -0.0263
    -0.0263

          k = 0.0000 0.0770 0.0000 (  7939 PWs)   bands (ev):

   -63.7209 -37.8084 -37.6183 -37.6063 -16.4977 -15.5246  -8.0577  -5.0111
    -4.9259  -4.7845  -3.9418  -3.7839  -3.1143  -0.2255  -0.1479  -0.0922
     0.0580

          k = 0.0000 0.1540 0.0000 (  8015 PWs)   bands (ev):

   -63.7166 -37.8001 -37.6623 -37.6166 -16.3114 -15.4282  -7.8348  -5.4265
    -5.2980  -4.5948  -4.2132  -3.8011  -3.1837  -0.6195  -0.2897  -0.2583
     0.2980

          k = 0.0000 0.2309 0.0000 (  8025 PWs)   bands (ev):

   -63.7101 -37.7879 -37.7263 -37.6314 -16.0206 -15.2781  -7.5403  -5.9525
    -5.7589  -4.5548  -4.3143  -4.0154  -3.3752  -0.8896  -0.4500  -0.2218
     0.5751

          k = 0.0000 0.3079 0.0000 (  8022 PWs)   bands (ev):

   -63.7026 -37.7989 -37.7737 -37.6485 -15.6567 -15.0920  -7.3742  -6.3804
    -6.2702  -4.8899  -4.3223  -3.9992  -3.6330  -0.8926  -0.5883   0.0542
     0.8114

          k = 0.0000 0.3849 0.0000 (  8036 PWs)   bands (ev):

   -63.6954 -37.8676 -37.7602 -37.6646 -15.2686 -14.8970  -7.6106  -6.7778
    -6.4989  -5.1711  -4.5839  -3.7432  -3.7202  -0.6876  -0.6203   0.3997
     0.9764

          k = 0.0000 0.4619 0.0000 (  8068 PWs)   bands (ev):

   -63.6898 -37.9210 -37.7496 -37.6773 -14.9274 -14.7303  -8.0008  -7.1932
    -6.5392  -5.3708  -4.7519  -3.6195  -3.5321  -0.5548  -0.3887   0.6855
     1.0728

          k = 0.0000 0.5389 0.0000 (  8060 PWs)   bands (ev):

   -63.6867 -37.9499 -37.7438 -37.6841 -14.7215 -14.6326  -8.2553  -7.4280
    -6.5916  -5.4739  -4.8305  -3.4512  -3.4450  -0.4763  -0.1393   0.8370
     1.1155

          k = 0.0667 0.1155 0.0000 (  7976 PWs)   bands (ev):

   -63.7180 -37.8028 -37.6476 -37.6137 -16.3725 -15.4598  -7.9053  -5.2951
    -5.1763  -4.6599  -4.1930  -3.7196  -3.1544  -0.5113  -0.2892  -0.2159
     0.2422

          k = 0.0667 0.1925 0.0000 (  8013 PWs)   bands (ev):

   -63.7125 -37.7925 -37.7002 -37.6277 -16.1337 -15.3363  -7.6396  -5.7552
    -5.5427  -4.6169  -4.4424  -3.7569  -3.2843  -0.8359  -0.3934  -0.3531
     0.5230

          k = 0.0667 0.2694 0.0000 (  8033 PWs)   bands (ev):

   -63.7055 -37.7793 -37.7666 -37.6455 -15.8055 -15.1673  -7.3805  -6.2266
    -5.9944  -5.0299  -4.2085  -3.9739  -3.4963  -0.9922  -0.5123  -0.1951
     0.7891

          k = 0.0667 0.3464 0.0000 (  8038 PWs)   bands (ev):

   -63.6982 -37.8354 -37.7655 -37.6640 -15.4272 -14.9747  -7.4175  -6.5144
    -6.4571  -5.3157  -4.2746  -4.1061  -3.5611  -0.9426  -0.4993   0.1154
     0.9811

          k = 0.0667 0.4234 0.0000 (  8053 PWs)   bands (ev):

   -63.6918 -37.8948 -37.7534 -37.6800 -15.0580 -14.7907  -7.7708  -7.0039
    -6.4846  -5.4728  -4.5533  -4.0635  -3.4151  -0.7529  -0.3643   0.4526
     1.0744

          k = 0.0667 0.5004 0.0000 (  8063 PWs)   bands (ev):

   -63.6875 -37.9348 -37.7452 -37.6909 -14.7784 -14.6551  -8.0988  -7.3496
    -6.5408  -5.5417  -4.7469  -3.9635  -3.2414  -0.5518  -0.1691   0.7362
     1.0594

          k = 0.0667 0.5774 0.0000 (  8086 PWs)   bands (ev):

   -63.6860 -37.9490 -37.7423 -37.6947 -14.6722 -14.6047  -8.2269  -7.4741
    -6.5750  -5.5590  -4.8169  -3.9164  -3.1580  -0.4755  -0.0548   0.9292
     0.9537

          k = 0.1333 0.2309 0.0000 (  8046 PWs)   bands (ev):

   -63.7066 -37.7813 -37.7528 -37.6469 -15.8569 -15.1932  -7.3884  -6.1482
    -5.8121  -5.2216  -4.3120  -3.7635  -3.4378  -1.0428  -0.4821  -0.3516
     0.8092

          k = 0.1333 0.3079 0.0000 (  8031 PWs)   bands (ev):

   -63.6997 -37.8112 -37.7684 -37.6702 -15.5119 -15.0156  -7.2863  -6.3958
    -6.2232  -5.6464  -4.3763  -3.9535  -3.4874  -1.1133  -0.4241  -0.1811
     1.0366

          k = 0.1333 0.3849 0.0000 (  8050 PWs)   bands (ev):

   -63.6932 -37.8662 -37.7561 -37.6929 -15.1465 -14.8294  -7.5135  -6.7803
    -6.3945  -5.7654  -4.5484  -4.2573  -3.3842  -0.9678  -0.2759   0.0895
     1.1695

          k = 0.1333 0.4619 0.0000 (  8080 PWs)   bands (ev):

   -63.6881 -37.9089 -37.7463 -37.7108 -14.8286 -14.6701  -7.8208  -7.2414
    -6.4258  -5.7505  -4.6056  -4.5665  -3.2084  -0.7083  -0.1118   0.3484
     1.2120

          k = 0.1333 0.5389 0.0000 (  8098 PWs)   bands (ev):

   -63.6853 -37.9320 -37.7411 -37.7206 -14.6387 -14.5767  -8.0166  -7.4961
    -6.4974  -5.6956  -4.7756  -4.5929  -3.0457  -0.5468   0.0370   0.5110
     1.2001

          k = 0.2000 0.3464 0.0000 (  8030 PWs)   bands (ev):

   -63.6937 -37.8526 -37.7569 -37.7011 -15.1777 -14.8426  -7.3944  -6.6405
    -6.3383  -5.9444  -4.7722  -4.1233  -3.3855  -1.0491  -0.2433  -0.0795
     1.2204

          k = 0.2000 0.4234 0.0000 (  8089 PWs)   bands (ev):

   -63.6884 -37.8854 -37.7470 -37.7311 -14.8579 -14.6773  -7.5780  -7.1453
    -6.2731  -5.9343  -5.1368  -4.4206  -3.2296  -0.8195  -0.0636   0.0511
     1.3549

          k = 0.2000 0.5004 0.0000 (  8115 PWs)   bands (ev):

   -63.6848 -37.9060 -37.7531 -37.7402 -14.6214 -14.5556  -7.7108  -7.5024
    -6.3620  -5.8188  -5.2988  -4.7235  -3.0185  -0.6627   0.1181   0.1378
     1.4501

          k = 0.2000 0.5774 0.0000 (  8132 PWs)   bands (ev):

   -63.6836 -37.9130 -37.7611 -37.7378 -14.5331 -14.5103  -7.7567  -7.6295
    -6.4351  -5.7408  -5.3291  -4.8679  -2.9054  -0.6448   0.1651   0.2256
     1.4858

          k = 0.2667 0.4619 0.0000 (  8124 PWs)   bands (ev):

   -63.6847 -37.8907 -37.7708 -37.7399 -14.6163 -14.5477  -7.5426  -7.5026
    -6.2167  -5.8695  -5.7042  -4.6973  -3.0159  -0.7174  -0.0073   0.1492
     1.5537

          k = 0.2667 0.5389 0.0000 (  8146 PWs)   bands (ev):

   -63.6826 -37.8865 -37.7996 -37.7360 -14.4771 -14.4718  -7.7128  -7.4311
    -6.3803  -5.9369  -5.7261  -4.9500  -2.8093  -0.7740  -0.0539   0.3468
     1.6897

          k = 0.3333 0.5774 0.0000 (  8148 PWs)   bands (ev):

   -63.6818 -37.8634 -37.8322 -37.7345 -14.4409 -14.4254  -7.7927  -7.1598
    -6.6009  -6.1242  -5.6372  -5.0829  -2.7008  -0.8677  -0.1282   0.4498
     1.7888

     the Fermi energy is    -2.5765 ev

!    total energy              =    -496.67426876 Ry
     Harris-Foulkes estimate   =    -496.67426876 Ry
     estimated scf accuracy    <          1.5E-12 Ry

     total all-electron energy =     -9695.005655 Ry

     The total energy is the sum of the following terms:

     one-electron contribution =   -2078.41168967 Ry
     hartree contribution      =    1040.18972803 Ry
     xc contribution           =     -42.43158332 Ry
     ewald contribution        =     890.91448387 Ry
     one-center paw contrib.   =    -306.94026030 Ry
     smearing contrib. (-TS)   =       0.00505263 Ry

     convergence has been achieved in  13 iterations

     Forces acting on atoms (Ry/au):


     negative rho (up, down):  7.829E-04 0.000E+00
     atom    1 type  1   force =     0.00000000    0.00000000    0.00000000
     atom    2 type  2   force =    -0.00000000   -0.00000000    0.05827823
     atom    3 type  2   force =     0.00000000    0.00000000   -0.05827823

     Total force =     0.082418     Total SCF correction =     0.000000

     number of scf cycles    =   3
     number of bfgs steps    =   2

     energy   old            =    -496.6536009785 Ry
     energy   new            =    -496.6742687591 Ry

     CASE: energy  _new < energy  _old

     new trust radius        =       0.2012323472 bohr
     new conv_thr            =            5.8E-11 Ry


ATOMIC_POSITIONS (crystal)
Mo      -0.000000000  -0.000000000   0.000000000
S        0.333333000   0.666667000   0.951253515
S        0.333333000   0.666667000   0.048746485



     Writing output data file MoS2_a601.save
     Check: negative starting charge=   -0.000747
     NEW-OLD atomic charge density approx. for the potential
     Check: negative starting charge=   -0.000760

     negative rho (up, down):  8.025E-04 0.000E+00

     total cpu time spent up to now is       59.0 secs

     per-process dynamical memory:    26.2 Mb

     Self-consistent Calculation

     iteration #  1     ecut=    40.00 Ry     beta=0.30
     Davidson diagonalization with overlap
     ethr =  1.00E-06,  avg # of iterations =  6.9

     negative rho (up, down):  8.018E-04 0.000E+00

     total cpu time spent up to now is       61.1 secs

     total energy              =    -496.68102179 Ry
     Harris-Foulkes estimate   =    -496.68935905 Ry
     estimated scf accuracy    <       0.00663083 Ry

     iteration #  2     ecut=    40.00 Ry     beta=0.30
     Davidson diagonalization with overlap
     ethr =  2.55E-05,  avg # of iterations =  2.4

     negative rho (up, down):  8.021E-04 0.000E+00

     total cpu time spent up to now is       62.1 secs

     total energy              =    -496.68203235 Ry
     Harris-Foulkes estimate   =    -496.68366334 Ry
     estimated scf accuracy    <       0.00635151 Ry

     iteration #  3     ecut=    40.00 Ry     beta=0.30
     Davidson diagonalization with overlap
     ethr =  2.44E-05,  avg # of iterations =  1.7

     negative rho (up, down):  7.983E-04 0.000E+00

     total cpu time spent up to now is       62.9 secs

     total energy              =    -496.68273682 Ry
     Harris-Foulkes estimate   =    -496.68279744 Ry
     estimated scf accuracy    <       0.00032170 Ry

     iteration #  4     ecut=    40.00 Ry     beta=0.30
     Davidson diagonalization with overlap
     ethr =  1.24E-06,  avg # of iterations =  2.6

     negative rho (up, down):  7.985E-04 0.000E+00

     total cpu time spent up to now is       63.9 secs

     total energy              =    -496.68277714 Ry
     Harris-Foulkes estimate   =    -496.68279707 Ry
     estimated scf accuracy    <       0.00008470 Ry

     iteration #  5     ecut=    40.00 Ry     beta=0.30
     Davidson diagonalization with overlap
     ethr =  3.26E-07,  avg # of iterations =  2.0

     negative rho (up, down):  7.990E-04 0.000E+00

     total cpu time spent up to now is       64.8 secs

     total energy              =    -496.68278986 Ry
     Harris-Foulkes estimate   =    -496.68278826 Ry
     estimated scf accuracy    <       0.00000534 Ry

     iteration #  6     ecut=    40.00 Ry     beta=0.30
     Davidson diagonalization with overlap
     ethr =  2.05E-08,  avg # of iterations =  2.8

     negative rho (up, down):  7.989E-04 0.000E+00

     total cpu time spent up to now is       65.9 secs

     total energy              =    -496.68279073 Ry
     Harris-Foulkes estimate   =    -496.68279093 Ry
     estimated scf accuracy    <       0.00000155 Ry

     iteration #  7     ecut=    40.00 Ry     beta=0.30
     Davidson diagonalization with overlap
     ethr =  5.95E-09,  avg # of iterations =  1.0

     negative rho (up, down):  7.990E-04 0.000E+00

     total cpu time spent up to now is       66.7 secs

     total energy              =    -496.68279046 Ry
     Harris-Foulkes estimate   =    -496.68279079 Ry
     estimated scf accuracy    <       0.00000099 Ry

     iteration #  8     ecut=    40.00 Ry     beta=0.30
     Davidson diagonalization with overlap
     ethr =  3.81E-09,  avg # of iterations =  2.0

     negative rho (up, down):  7.991E-04 0.000E+00

     total cpu time spent up to now is       67.7 secs

     total energy              =    -496.68279070 Ry
     Harris-Foulkes estimate   =    -496.68279073 Ry
     estimated scf accuracy    <       0.00000014 Ry

     iteration #  9     ecut=    40.00 Ry     beta=0.30
     Davidson diagonalization with overlap
     ethr =  5.36E-10,  avg # of iterations =  2.0

     negative rho (up, down):  7.992E-04 0.000E+00

     total cpu time spent up to now is       68.6 secs

     total energy              =    -496.68279069 Ry
     Harris-Foulkes estimate   =    -496.68279071 Ry
     estimated scf accuracy    <       0.00000005 Ry

     iteration # 10     ecut=    40.00 Ry     beta=0.30
     Davidson diagonalization with overlap
     ethr =  1.97E-10,  avg # of iterations =  2.1

     negative rho (up, down):  7.993E-04 0.000E+00

     total cpu time spent up to now is       69.6 secs

     total energy              =    -496.68279070 Ry
     Harris-Foulkes estimate   =    -496.68279070 Ry
     estimated scf accuracy    <          5.7E-09 Ry

     iteration # 11     ecut=    40.00 Ry     beta=0.30
     Davidson diagonalization with overlap
     ethr =  2.17E-11,  avg # of iterations =  2.5

     negative rho (up, down):  7.993E-04 0.000E+00

     total cpu time spent up to now is       70.6 secs

     total energy              =    -496.68279070 Ry
     Harris-Foulkes estimate   =    -496.68279070 Ry
     estimated scf accuracy    <          4.0E-09 Ry

     iteration # 12     ecut=    40.00 Ry     beta=0.30
     Davidson diagonalization with overlap
     ethr =  1.53E-11,  avg # of iterations =  2.0

     negative rho (up, down):  7.993E-04 0.000E+00

     total cpu time spent up to now is       71.6 secs

     total energy              =    -496.68279070 Ry
     Harris-Foulkes estimate   =    -496.68279070 Ry
     estimated scf accuracy    <          7.0E-11 Ry

     iteration # 13     ecut=    40.00 Ry     beta=0.30
     Davidson diagonalization with overlap
     ethr =  2.69E-13,  avg # of iterations =  3.0

     negative rho (up, down):  7.994E-04 0.000E+00

     total cpu time spent up to now is       72.7 secs

     End of self-consistent calculation

          k = 0.0000 0.0000 0.0000 (  7969 PWs)   bands (ev):

   -63.6951 -37.8173 -37.6230 -37.6230 -16.9344 -15.6090  -8.4562  -5.4586
    -5.4586  -4.5612  -4.3258  -4.3258  -2.7959  -0.0156  -0.0156   0.2267
     0.2267

          k = 0.0000 0.0770 0.0000 (  7939 PWs)   bands (ev):

   -63.6934 -37.8139 -37.6397 -37.6267 -16.8683 -15.5820  -8.3803  -5.6076
    -5.3885  -4.9444  -4.4336  -4.0419  -2.8284  -0.1129   0.0378   0.1020
     0.1512

          k = 0.0000 0.1540 0.0000 (  8015 PWs)   bands (ev):

   -63.6888 -37.8046 -37.6870 -37.6376 -16.6765 -15.5038  -8.1743  -5.9841
    -5.4593  -5.1878  -4.7083  -3.8694  -2.9630  -0.3297  -0.2298  -0.0414
     0.3964

          k = 0.0000 0.2309 0.0000 (  8025 PWs)   bands (ev):

   -63.6820 -37.7908 -37.7557 -37.6533 -16.3790 -15.3828  -7.9248  -6.4207
    -5.9909  -5.0548  -4.8850  -3.9540  -3.2534  -0.5757  -0.2744  -0.1202
     0.7511

          k = 0.0000 0.3079 0.0000 (  8022 PWs)   bands (ev):

   -63.6741 -37.8336 -37.7748 -37.6713 -16.0105 -15.2342  -7.8482  -6.6907
    -6.5173  -5.3952  -4.5304  -4.1898  -3.6066  -0.5910  -0.4710   0.2148
     1.0700

          k = 0.0000 0.3849 0.0000 (  8036 PWs)   bands (ev):

   -63.6665 -37.9073 -37.7596 -37.6884 -15.6224 -15.0806  -8.0795  -6.9995
    -6.7382  -5.6808  -4.4253  -4.1919  -3.7783  -0.5797  -0.4444   0.6180
     1.3054

          k = 0.0000 0.4619 0.0000 (  8068 PWs)   bands (ev):

   -63.6606 -37.9645 -37.7476 -37.7018 -15.2863 -14.9510  -8.3855  -7.3758
    -6.8080  -5.8835  -4.5886  -3.9373  -3.6640  -0.5953  -0.2354   0.9400
     1.4504

          k = 0.0000 0.5389 0.0000 (  8060 PWs)   bands (ev):

   -63.6574 -37.9955 -37.7411 -37.7090 -15.0862 -14.8760  -8.5799  -7.5835
    -6.8946  -5.9883  -4.6679  -3.8058  -3.4771  -0.5701  -0.0668   1.1029
     1.5172

          k = 0.0667 0.1155 0.0000 (  7976 PWs)   bands (ev):

   -63.6903 -37.8076 -37.6712 -37.6346 -16.7393 -15.5293  -8.2385  -5.8675
    -5.3000  -5.2559  -4.6744  -3.8523  -2.9119  -0.2420  -0.2290   0.0090
     0.3278

          k = 0.0667 0.1925 0.0000 (  8013 PWs)   bands (ev):

   -63.6846 -37.7960 -37.7277 -37.6493 -16.4944 -15.4295  -8.0023  -6.2665
    -5.7458  -5.0728  -5.0176  -3.7831  -3.1282  -0.5283  -0.2843  -0.2004
     0.6845

          k = 0.0667 0.2694 0.0000 (  8033 PWs)   bands (ev):

   -63.6772 -37.7991 -37.7812 -37.6682 -16.1605 -15.2938  -7.8171  -6.6087
    -6.2469  -5.4518  -4.7310  -3.9299  -3.4572  -0.6878  -0.3588  -0.0838
     1.0396

          k = 0.0667 0.3464 0.0000 (  8038 PWs)   bands (ev):

   -63.6695 -37.8728 -37.7656 -37.6878 -15.7800 -15.1408  -7.9127  -6.7719
    -6.7054  -5.7239  -4.4947  -4.1894  -3.6825  -0.7003  -0.3896   0.2855
     1.3092

          k = 0.0667 0.4234 0.0000 (  8053 PWs)   bands (ev):

   -63.6627 -37.9365 -37.7520 -37.7048 -15.4138 -14.9964  -8.1984  -7.2354
    -6.7327  -5.8921  -4.4384  -4.3427  -3.6153  -0.6248  -0.2971   0.6811
     1.4470

          k = 0.0667 0.5004 0.0000 (  8063 PWs)   bands (ev):

   -63.6582 -37.9793 -37.7427 -37.7163 -15.1404 -14.8912  -8.4455  -7.5523
    -6.8310  -5.9807  -4.6076  -4.2050  -3.4135  -0.5597  -0.1212   1.0102
     1.4377

          k = 0.0667 0.5774 0.0000 (  8086 PWs)   bands (ev):

   -63.6565 -37.9945 -37.7395 -37.7204 -15.0377 -14.8524  -8.5405  -7.6649
    -6.8860  -6.0079  -4.6668  -4.1469  -3.3060  -0.5465  -0.0139   1.1939
     1.3540

          k = 0.1333 0.2309 0.0000 (  8046 PWs)   bands (ev):

   -63.6783 -37.7842 -37.7834 -37.6698 -16.2125 -15.3142  -7.8093  -6.5613
    -6.0552  -5.6228  -4.8268  -3.7470  -3.3938  -0.7348  -0.3193  -0.2693
     1.0662

          k = 0.1333 0.3079 0.0000 (  8031 PWs)   bands (ev):

   -63.6711 -37.8470 -37.7688 -37.6945 -15.8642 -15.1719  -7.7886  -6.6650
    -6.5416  -5.9524  -4.7568  -3.8997  -3.6067  -0.8279  -0.3201  -0.0584
     1.3808

          k = 0.1333 0.3849 0.0000 (  8050 PWs)   bands (ev):

   -63.6642 -37.9060 -37.7549 -37.7186 -15.5000 -15.0239  -7.9827  -7.1040
    -6.6229  -6.0429  -4.8364  -4.1774  -3.5876  -0.7165  -0.2715   0.2796
     1.5575

          k = 0.1333 0.4619 0.0000 (  8080 PWs)   bands (ev):

   -63.6588 -37.9517 -37.7440 -37.7376 -15.1874 -14.8983  -8.2010  -7.5450
    -6.6927  -6.0344  -4.8524  -4.4612  -3.4044  -0.5601  -0.1494   0.6231
     1.5797

          k = 0.1333 0.5389 0.0000 (  8098 PWs)   bands (ev):

   -63.6558 -37.9765 -37.7480 -37.7380 -15.0032 -14.8251  -8.3316  -7.7843
    -6.8082  -5.9982  -4.8139  -4.6442  -3.2142  -0.5787   0.0812   0.8688
     1.5061

          k = 0.2000 0.3464 0.0000 (  8030 PWs)   bands (ev):

   -63.6647 -37.8914 -37.7559 -37.7273 -15.5303 -15.0330  -7.8833  -7.0362
    -6.5570  -6.1379  -5.0628  -4.0452  -3.5878  -0.7619  -0.2530   0.0926
     1.6175

          k = 0.2000 0.4234 0.0000 (  8089 PWs)   bands (ev):

   -63.6591 -37.9267 -37.7592 -37.7447 -15.2147 -14.9004  -7.9931  -7.5417
    -6.5032  -6.0985  -5.4009  -4.3244  -3.4336  -0.5841  -0.1455   0.3102
     1.7385

          k = 0.2000 0.5004 0.0000 (  8115 PWs)   bands (ev):

   -63.6553 -37.9490 -37.7825 -37.7371 -14.9841 -14.8028  -8.0438  -7.8893
    -6.6495  -5.9796  -5.5328  -4.6097  -3.1968  -0.6691   0.1859   0.4849
     1.7808

          k = 0.2000 0.5774 0.0000 (  8132 PWs)   bands (ev):

   -63.6540 -37.9565 -37.7910 -37.7344 -14.8988 -14.7666  -8.0498  -8.0122
    -6.7573  -5.9092  -5.5487  -4.7400  -3.0638  -0.7705   0.3800   0.5497
     1.7874

          k = 0.2667 0.4619 0.0000 (  8124 PWs)   bands (ev):

   -63.6552 -37.9328 -37.8012 -37.7367 -14.9782 -14.7942  -7.9305  -7.8938
    -6.4607  -5.9726  -5.9681  -4.5905  -3.1973  -0.7141   0.2277   0.3351
     1.8990

          k = 0.2667 0.5389 0.0000 (  8146 PWs)   bands (ev):

   -63.6530 -37.9291 -37.8312 -37.7323 -14.8432 -14.7317  -8.1508  -7.7202
    -6.6793  -6.1814  -5.8080  -4.8341  -2.9550  -0.9596   0.3376   0.5829
     2.0082

          k = 0.3333 0.5774 0.0000 (  8148 PWs)   bands (ev):

   -63.6522 -37.9078 -37.8627 -37.7307 -14.7930 -14.7052  -8.2470  -7.4138
    -6.8971  -6.3999  -5.6937  -4.9666  -2.8211  -1.1277   0.2770   0.7581
     2.1074

     the Fermi energy is    -1.1703 ev

!    total energy              =    -496.68279070 Ry
     Harris-Foulkes estimate   =    -496.68279070 Ry
     estimated scf accuracy    <          1.4E-11 Ry

     total all-electron energy =     -9695.014177 Ry

     The total energy is the sum of the following terms:

     one-electron contribution =   -2109.88565146 Ry
     hartree contribution      =    1055.86711220 Ry
     xc contribution           =     -42.58721395 Ry
     ewald contribution        =     906.86753971 Ry
     one-center paw contrib.   =    -306.95213777 Ry
     smearing contrib. (-TS)   =       0.00756059 Ry

     convergence has been achieved in  13 iterations

     Forces acting on atoms (Ry/au):


     negative rho (up, down):  7.994E-04 0.000E+00
     atom    1 type  1   force =    -0.00000000    0.00000000    0.00000000
     atom    2 type  2   force =     0.00000000    0.00000000   -0.00940165
     atom    3 type  2   force =     0.00000000   -0.00000000    0.00940165

     Total force =     0.013296     Total SCF correction =     0.000010

     number of scf cycles    =   4
     number of bfgs steps    =   3

     energy   old            =    -496.6742687591 Ry
     energy   new            =    -496.6827906961 Ry

     CASE: energy  _new < energy  _old

     new trust radius        =       0.0279538999 bohr
     new conv_thr            =            9.4E-12 Ry


ATOMIC_POSITIONS (crystal)
Mo      -0.000000000  -0.000000000   0.000000000
S        0.333333000   0.666667000   0.950789934
S        0.333333000   0.666667000   0.049210066



     Writing output data file MoS2_a601.save
     Check: negative starting charge=   -0.000760
     NEW-OLD atomic charge density approx. for the potential
     Check: negative starting charge=   -0.000758

     negative rho (up, down):  7.971E-04 0.000E+00

     total cpu time spent up to now is       74.3 secs

     per-process dynamical memory:    26.2 Mb

     Self-consistent Calculation

     iteration #  1     ecut=    40.00 Ry     beta=0.30
     Davidson diagonalization with overlap
     ethr =  1.00E-06,  avg # of iterations =  4.0

     negative rho (up, down):  7.970E-04 0.000E+00

     total cpu time spent up to now is       75.7 secs

     total energy              =    -496.68299435 Ry
     Harris-Foulkes estimate   =    -496.68933504 Ry
     estimated scf accuracy    <       0.00016880 Ry

     iteration #  2     ecut=    40.00 Ry     beta=0.30
     Davidson diagonalization with overlap
     ethr =  6.49E-07,  avg # of iterations =  2.6

     negative rho (up, down):  7.968E-04 0.000E+00

     total cpu time spent up to now is       76.7 secs

     total energy              =    -496.68302163 Ry
     Harris-Foulkes estimate   =    -496.68306714 Ry
     estimated scf accuracy    <       0.00018136 Ry

     iteration #  3     ecut=    40.00 Ry     beta=0.30
     Davidson diagonalization with overlap
     ethr =  6.49E-07,  avg # of iterations =  1.7

     negative rho (up, down):  7.970E-04 0.000E+00

     total cpu time spent up to now is       77.6 secs

     total energy              =    -496.68303997 Ry
     Harris-Foulkes estimate   =    -496.68304277 Ry
     estimated scf accuracy    <       0.00000717 Ry

     iteration #  4     ecut=    40.00 Ry     beta=0.30
     Davidson diagonalization with overlap
     ethr =  2.76E-08,  avg # of iterations =  2.8

     negative rho (up, down):  7.968E-04 0.000E+00

     total cpu time spent up to now is       78.7 secs

     total energy              =    -496.68304092 Ry
     Harris-Foulkes estimate   =    -496.68304155 Ry
     estimated scf accuracy    <       0.00000197 Ry

     iteration #  5     ecut=    40.00 Ry     beta=0.30
     Davidson diagonalization with overlap
     ethr =  7.57E-09,  avg # of iterations =  2.0

     negative rho (up, down):  7.967E-04 0.000E+00

     total cpu time spent up to now is       79.6 secs

     total energy              =    -496.68304126 Ry
     Harris-Foulkes estimate   =    -496.68304130 Ry
     estimated scf accuracy    <       0.00000027 Ry

     iteration #  6     ecut=    40.00 Ry     beta=0.30
     Davidson diagonalization with overlap
     ethr =  1.03E-09,  avg # of iterations =  1.5

     negative rho (up, down):  7.966E-04 0.000E+00

     total cpu time spent up to now is       80.4 secs

     total energy              =    -496.68304129 Ry
     Harris-Foulkes estimate   =    -496.68304129 Ry
     estimated scf accuracy    <       0.00000002 Ry

     iteration #  7     ecut=    40.00 Ry     beta=0.30
     Davidson diagonalization with overlap
     ethr =  7.79E-11,  avg # of iterations =  2.7

     negative rho (up, down):  7.965E-04 0.000E+00

     total cpu time spent up to now is       81.5 secs

     total energy              =    -496.68304129 Ry
     Harris-Foulkes estimate   =    -496.68304129 Ry
     estimated scf accuracy    <          8.7E-10 Ry

     iteration #  8     ecut=    40.00 Ry     beta=0.30
     Davidson diagonalization with overlap
     ethr =  3.35E-12,  avg # of iterations =  2.9

     negative rho (up, down):  7.965E-04 0.000E+00

     total cpu time spent up to now is       82.6 secs

     total energy              =    -496.68304129 Ry
     Harris-Foulkes estimate   =    -496.68304129 Ry
     estimated scf accuracy    <          3.5E-10 Ry

     iteration #  9     ecut=    40.00 Ry     beta=0.30
     Davidson diagonalization with overlap
     ethr =  1.36E-12,  avg # of iterations =  2.0

     negative rho (up, down):  7.964E-04 0.000E+00

     total cpu time spent up to now is       83.5 secs

     total energy              =    -496.68304129 Ry
     Harris-Foulkes estimate   =    -496.68304129 Ry
     estimated scf accuracy    <          6.8E-11 Ry

     iteration # 10     ecut=    40.00 Ry     beta=0.30
     Davidson diagonalization with overlap
     ethr =  2.60E-13,  avg # of iterations =  2.1

     negative rho (up, down):  7.964E-04 0.000E+00

     total cpu time spent up to now is       84.5 secs

     total energy              =    -496.68304129 Ry
     Harris-Foulkes estimate   =    -496.68304129 Ry
     estimated scf accuracy    <          1.0E-11 Ry

     iteration # 11     ecut=    40.00 Ry     beta=0.30
     Davidson diagonalization with overlap
     ethr =  1.00E-13,  avg # of iterations =  1.0

     negative rho (up, down):  7.964E-04 0.000E+00

     total cpu time spent up to now is       85.3 secs

     End of self-consistent calculation

          k = 0.0000 0.0000 0.0000 (  7969 PWs)   bands (ev):

   -63.7049 -37.8245 -37.6239 -37.6239 -16.8843 -15.6093  -8.4128  -5.3727
    -5.3727  -4.5969  -4.2619  -4.2619  -2.8475  -0.0236  -0.0235   0.1838
     0.1838

          k = 0.0000 0.0770 0.0000 (  7939 PWs)   bands (ev):

   -63.7032 -37.8212 -37.6404 -37.6276 -16.8184 -15.5814  -8.3362  -5.5236
    -5.3032  -4.9360  -4.3696  -4.0247  -2.8769  -0.1223  -0.0061   0.0914
     0.1098

          k = 0.0000 0.1540 0.0000 (  8015 PWs)   bands (ev):

   -63.6987 -37.8120 -37.6872 -37.6384 -16.6275 -15.5004  -8.1275  -5.9066
    -5.4364  -5.1044  -4.6440  -3.8738  -3.0019  -0.3767  -0.2426  -0.0785
     0.3781

          k = 0.0000 0.2309 0.0000 (  8025 PWs)   bands (ev):

   -63.6919 -37.7985 -37.7552 -37.6540 -16.3310 -15.3751  -7.8710  -6.3575
    -5.9621  -4.9899  -4.8053  -3.9731  -3.2777  -0.6256  -0.3048  -0.1388
     0.7215

          k = 0.0000 0.3079 0.0000 (  8022 PWs)   bands (ev):

   -63.6840 -37.8323 -37.7828 -37.6718 -15.9630 -15.2210  -7.7826  -6.6503
    -6.4887  -5.3297  -4.4568  -4.2172  -3.6164  -0.6389  -0.4923   0.1880
     1.0282

          k = 0.0000 0.3849 0.0000 (  8036 PWs)   bands (ev):

   -63.6765 -37.9052 -37.7678 -37.6888 -15.5748 -15.0612  -8.0166  -6.9753
    -6.7078  -5.6148  -4.4560  -4.1273  -3.7777  -0.5894  -0.4834   0.5831
     1.2530

          k = 0.0000 0.4619 0.0000 (  8068 PWs)   bands (ev):

   -63.6707 -37.9617 -37.7561 -37.7021 -15.2377 -14.9263  -8.3352  -7.3573
    -6.7743  -5.8171  -4.6202  -3.8827  -3.6609  -0.5927  -0.2598   0.9001
     1.3906

          k = 0.0000 0.5389 0.0000 (  8060 PWs)   bands (ev):

   -63.6675 -37.9924 -37.7497 -37.7092 -15.0366 -14.8480  -8.5390  -7.5688
    -6.8561  -5.9217  -4.6996  -3.7579  -3.4766  -0.5593  -0.0773   1.0616
     1.4537

          k = 0.0667 0.1155 0.0000 (  7976 PWs)   bands (ev):

   -63.7001 -37.8150 -37.6716 -37.6354 -16.6900 -15.5269  -8.1927  -5.7876
    -5.2809  -5.1720  -4.6116  -3.8492  -2.9541  -0.2751  -0.2531  -0.0293
     0.3113

          k = 0.0667 0.1925 0.0000 (  8013 PWs)   bands (ev):

   -63.6944 -37.8036 -37.7275 -37.6500 -16.4460 -15.4235  -7.9519  -6.1965
    -5.7194  -5.0132  -4.9370  -3.7923  -3.1577  -0.5774  -0.2983  -0.2335
     0.6572

          k = 0.0667 0.2694 0.0000 (  8033 PWs)   bands (ev):

   -63.6871 -37.7980 -37.7890 -37.6687 -16.1129 -15.2829  -7.7559  -6.5582
    -6.2161  -5.3962  -4.6577  -3.9478  -3.4703  -0.7352  -0.3864  -0.1038
     0.9994

          k = 0.0667 0.3464 0.0000 (  8038 PWs)   bands (ev):

   -63.6795 -37.8710 -37.7737 -37.6882 -15.7326 -15.1240  -7.8456  -6.7416
    -6.6730  -5.6701  -4.4372  -4.2126  -3.6752  -0.7361  -0.4125   0.2572
     1.2574

          k = 0.0667 0.4234 0.0000 (  8053 PWs)   bands (ev):

   -63.6728 -37.9340 -37.7603 -37.7050 -15.3658 -14.9738  -8.1416  -7.2089
    -6.7016  -5.8376  -4.4653  -4.3019  -3.5945  -0.6420  -0.3144   0.6447
     1.3882

          k = 0.0667 0.5004 0.0000 (  8063 PWs)   bands (ev):

   -63.6683 -37.9764 -37.7512 -37.7164 -15.0913 -14.8643  -8.4011  -7.5298
    -6.7944  -5.9247  -4.6371  -4.1716  -3.3943  -0.5587  -0.1317   0.9682
     1.3772

          k = 0.0667 0.5774 0.0000 (  8086 PWs)   bands (ev):

   -63.6667 -37.9914 -37.7480 -37.7204 -14.9880 -14.8238  -8.5013  -7.6440
    -6.8463  -5.9513  -4.6973  -4.1159  -3.2896  -0.5378  -0.0204   1.1545
     1.2892

          k = 0.1333 0.2309 0.0000 (  8046 PWs)   bands (ev):

   -63.6882 -37.7912 -37.7834 -37.6703 -16.1648 -15.3041  -7.7502  -6.5063
    -6.0239  -5.5720  -4.7547  -3.7608  -3.4078  -0.7826  -0.3483  -0.2853
     1.0252

          k = 0.1333 0.3079 0.0000 (  8031 PWs)   bands (ev):

   -63.6811 -37.8454 -37.7769 -37.6948 -15.8170 -15.1566  -7.7202  -6.6292
    -6.5001  -5.9159  -4.7029  -3.9181  -3.5981  -0.8709  -0.3409  -0.0800
     1.3269

          k = 0.1333 0.3849 0.0000 (  8050 PWs)   bands (ev):

   -63.6742 -37.9038 -37.7632 -37.7187 -15.4524 -15.0030  -7.9202  -7.0628
    -6.5935  -6.0102  -4.7982  -4.1992  -3.5635  -0.7542  -0.2768   0.2486
     1.4967

          k = 0.1333 0.4619 0.0000 (  8080 PWs)   bands (ev):

   -63.6689 -37.9490 -37.7525 -37.7375 -15.1389 -14.8725  -8.1515  -7.5067
    -6.6593  -6.0014  -4.8212  -4.4863  -3.3789  -0.5808  -0.1487   0.5804
     1.5213

          k = 0.1333 0.5389 0.0000 (  8098 PWs)   bands (ev):

   -63.6660 -37.9735 -37.7478 -37.7466 -14.9536 -14.7964  -8.2923  -7.7482
    -6.7687  -5.9636  -4.7870  -4.6724  -3.1916  -0.5731   0.0718   0.8139
     1.4570

          k = 0.2000 0.3464 0.0000 (  8030 PWs)   bands (ev):

   -63.6747 -37.8894 -37.7642 -37.7273 -15.4829 -15.0127  -7.8182  -6.9851
    -6.5281  -6.1174  -5.0255  -4.0663  -3.5633  -0.8054  -0.2555   0.0641
     1.5553

          k = 0.2000 0.4234 0.0000 (  8089 PWs)   bands (ev):

   -63.6692 -37.9243 -37.7589 -37.7532 -15.1665 -14.8754  -7.9388  -7.4906
    -6.4743  -6.0828  -5.3687  -4.3477  -3.4063  -0.6190  -0.1366   0.2695
     1.6780

          k = 0.2000 0.5004 0.0000 (  8115 PWs)   bands (ev):

   -63.6655 -37.9463 -37.7820 -37.7457 -14.9348 -14.7743  -8.0018  -7.8395
    -6.6134  -5.9650  -5.5048  -4.6352  -3.1720  -0.6648   0.1708   0.4310
     1.7287

          k = 0.2000 0.5774 0.0000 (  8132 PWs)   bands (ev):

   -63.6641 -37.9537 -37.7904 -37.7431 -14.8491 -14.7368  -8.0140  -7.9630
    -6.7163  -5.8939  -5.5227  -4.7672  -3.0415  -0.7513   0.3556   0.4899
     1.7403

          k = 0.2667 0.4619 0.0000 (  8124 PWs)   bands (ev):

   -63.6653 -37.9302 -37.8005 -37.7453 -14.9291 -14.7658  -7.8755  -7.8492
    -6.4307  -5.9657  -5.9361  -4.6150  -3.1720  -0.7104   0.2102   0.2819
     1.8448

          k = 0.2667 0.5389 0.0000 (  8146 PWs)   bands (ev):

   -63.6632 -37.9264 -37.8304 -37.7410 -14.7934 -14.7014  -8.0946  -7.6852
    -6.6422  -6.1514  -5.8043  -4.8596  -2.9343  -0.9319   0.2765   0.5471
     1.9589

          k = 0.3333 0.5774 0.0000 (  8148 PWs)   bands (ev):

   -63.6623 -37.9049 -37.8620 -37.7394 -14.7430 -14.6742  -8.1887  -7.3852
    -6.8599  -6.3649  -5.6933  -4.9921  -2.8042  -1.0900   0.2138   0.7130
     2.0584

     the Fermi energy is    -1.1870 ev

!    total energy              =    -496.68304129 Ry
     Harris-Foulkes estimate   =    -496.68304129 Ry
     estimated scf accuracy    <          2.0E-12 Ry

     total all-electron energy =     -9695.014427 Ry

     The total energy is the sum of the following terms:

     one-electron contribution =   -2105.51369929 Ry
     hartree contribution      =    1053.68385156 Ry
     xc contribution           =     -42.56386432 Ry
     ewald contribution        =     904.65341712 Ry
     one-center paw contrib.   =    -306.95025883 Ry
     smearing contrib. (-TS)   =       0.00751248 Ry

     convergence has been achieved in  11 iterations

     Forces acting on atoms (Ry/au):


     negative rho (up, down):  7.964E-04 0.000E+00
     atom    1 type  1   force =     0.00000000    0.00000000    0.00000000
     atom    2 type  2   force =     0.00000000    0.00000000    0.00037724
     atom    3 type  2   force =     0.00000000    0.00000000   -0.00037724

     Total force =     0.000534     Total SCF correction =     0.000000

     number of scf cycles    =   5
     number of bfgs steps    =   4

     energy   old            =    -496.6827906961 Ry
     energy   new            =    -496.6830412924 Ry

     CASE: energy  _new < energy  _old

     new trust radius        =       0.0010783827 bohr
     new conv_thr            =            1.0E-12 Ry


ATOMIC_POSITIONS (crystal)
Mo      -0.000000000   0.000000000   0.000000000
S        0.333333000   0.666667000   0.950807818
S        0.333333000   0.666667000   0.049192182



     Writing output data file MoS2_a601.save
     Check: negative starting charge=   -0.000758
     NEW-OLD atomic charge density approx. for the potential
     Check: negative starting charge=   -0.000758

     negative rho (up, down):  7.965E-04 0.000E+00

     total cpu time spent up to now is       96.4 secs

     per-process dynamical memory:    26.2 Mb

     Self-consistent Calculation

     iteration #  1     ecut=    40.00 Ry     beta=0.30
     Davidson diagonalization with overlap
     ethr =  1.00E-06,  avg # of iterations =  2.0

     Threshold (ethr) on eigenvalues was too large:
     Diagonalizing with lowered threshold

     Davidson diagonalization with overlap
     ethr =  9.71E-10,  avg # of iterations =  2.9

     negative rho (up, down):  7.965E-04 0.000E+00

     total cpu time spent up to now is       98.2 secs

     total energy              =    -496.68304165 Ry
     Harris-Foulkes estimate   =    -496.68283410 Ry
     estimated scf accuracy    <       0.00000024 Ry

     iteration #  2     ecut=    40.00 Ry     beta=0.30
     Davidson diagonalization with overlap
     ethr =  9.21E-10,  avg # of iterations =  2.5

     negative rho (up, down):  7.965E-04 0.000E+00

     total cpu time spent up to now is       99.2 secs

     total energy              =    -496.68304169 Ry
     Harris-Foulkes estimate   =    -496.68304175 Ry
     estimated scf accuracy    <       0.00000024 Ry

     iteration #  3     ecut=    40.00 Ry     beta=0.30
     Davidson diagonalization with overlap
     ethr =  9.09E-10,  avg # of iterations =  1.6

     negative rho (up, down):  7.965E-04 0.000E+00

     total cpu time spent up to now is      100.0 secs

     total energy              =    -496.68304171 Ry
     Harris-Foulkes estimate   =    -496.68304171 Ry
     estimated scf accuracy    <       0.00000001 Ry

     iteration #  4     ecut=    40.00 Ry     beta=0.30
     Davidson diagonalization with overlap
     ethr =  4.00E-11,  avg # of iterations =  2.6

     negative rho (up, down):  7.965E-04 0.000E+00

     total cpu time spent up to now is      101.0 secs

     total energy              =    -496.68304171 Ry
     Harris-Foulkes estimate   =    -496.68304171 Ry
     estimated scf accuracy    <          1.4E-09 Ry

     iteration #  5     ecut=    40.00 Ry     beta=0.30
     Davidson diagonalization with overlap
     ethr =  5.56E-12,  avg # of iterations =  2.0

     negative rho (up, down):  7.965E-04 0.000E+00

     total cpu time spent up to now is      102.0 secs

     total energy              =    -496.68304171 Ry
     Harris-Foulkes estimate   =    -496.68304171 Ry
     estimated scf accuracy    <          2.0E-10 Ry

     iteration #  6     ecut=    40.00 Ry     beta=0.30
     Davidson diagonalization with overlap
     ethr =  7.76E-13,  avg # of iterations =  2.0

     negative rho (up, down):  7.965E-04 0.000E+00

     total cpu time spent up to now is      102.9 secs

     total energy              =    -496.68304171 Ry
     Harris-Foulkes estimate   =    -496.68304171 Ry
     estimated scf accuracy    <          1.7E-11 Ry

     iteration #  7     ecut=    40.00 Ry     beta=0.30
     Davidson diagonalization with overlap
     ethr =  1.00E-13,  avg # of iterations =  2.2

     negative rho (up, down):  7.965E-04 0.000E+00

     total cpu time spent up to now is      103.8 secs

     total energy              =    -496.68304171 Ry
     Harris-Foulkes estimate   =    -496.68304171 Ry
     estimated scf accuracy    <          1.1E-11 Ry

     iteration #  8     ecut=    40.00 Ry     beta=0.30
     Davidson diagonalization with overlap
     ethr =  1.00E-13,  avg # of iterations =  1.0

     negative rho (up, down):  7.965E-04 0.000E+00

     total cpu time spent up to now is      104.6 secs

     End of self-consistent calculation

          k = 0.0000 0.0000 0.0000 (  7969 PWs)   bands (ev):

   -63.7045 -37.8243 -37.6239 -37.6239 -16.8862 -15.6093  -8.4145  -5.3760
    -5.3760  -4.5956  -4.2644  -4.2644  -2.8455  -0.0232  -0.0232   0.1854
     0.1854

          k = 0.0000 0.0770 0.0000 (  7939 PWs)   bands (ev):

   -63.7029 -37.8209 -37.6404 -37.6276 -16.8203 -15.5814  -8.3379  -5.5268
    -5.3065  -4.9363  -4.3721  -4.0254  -2.8751  -0.1219  -0.0044   0.0918
     0.1114

          k = 0.0000 0.1540 0.0000 (  8015 PWs)   bands (ev):

   -63.6983 -37.8118 -37.6872 -37.6384 -16.6293 -15.5006  -8.1293  -5.9096
    -5.4372  -5.1076  -4.6465  -3.8736  -3.0004  -0.3749  -0.2421  -0.0770
     0.3788

          k = 0.0000 0.2309 0.0000 (  8025 PWs)   bands (ev):

   -63.6915 -37.7982 -37.7552 -37.6539 -16.3328 -15.3755  -7.8731  -6.3599
    -5.9632  -4.9924  -4.8083  -3.9724  -3.2768  -0.6237  -0.3036  -0.1380
     0.7227

          k = 0.0000 0.3079 0.0000 (  8022 PWs)   bands (ev):

   -63.6837 -37.8323 -37.7825 -37.6718 -15.9648 -15.2215  -7.7851  -6.6518
    -6.4898  -5.3323  -4.4596  -4.2161  -3.6161  -0.6370  -0.4915   0.1890
     1.0298

          k = 0.0000 0.3849 0.0000 (  8036 PWs)   bands (ev):

   -63.6762 -37.9053 -37.7675 -37.6888 -15.5766 -15.0620  -8.0190  -6.9762
    -6.7089  -5.6173  -4.4549  -4.1298  -3.7777  -0.5890  -0.4819   0.5845
     1.2550

          k = 0.0000 0.4619 0.0000 (  8068 PWs)   bands (ev):

   -63.6703 -37.9618 -37.7557 -37.7021 -15.2396 -14.9273  -8.3372  -7.3580
    -6.7756  -5.8197  -4.6190  -3.8848  -3.6610  -0.5928  -0.2589   0.9017
     1.3929

          k = 0.0000 0.5389 0.0000 (  8060 PWs)   bands (ev):

   -63.6671 -37.9925 -37.7493 -37.7092 -15.0385 -14.8491  -8.5406  -7.5694
    -6.8576  -5.9242  -4.6984  -3.7598  -3.4766  -0.5597  -0.0769   1.0632
     1.4562

          k = 0.0667 0.1155 0.0000 (  7976 PWs)   bands (ev):

   -63.6998 -37.8147 -37.6716 -37.6354 -16.6919 -15.5270  -8.1944  -5.7907
    -5.2816  -5.1752  -4.6140  -3.8494  -2.9525  -0.2733  -0.2526  -0.0278
     0.3119

          k = 0.0667 0.1925 0.0000 (  8013 PWs)   bands (ev):

   -63.6941 -37.8033 -37.7275 -37.6500 -16.4479 -15.4238  -7.9538  -6.1992
    -5.7204  -5.0155  -4.9401  -3.7920  -3.1566  -0.5755  -0.2978  -0.2323
     0.6583

          k = 0.0667 0.2694 0.0000 (  8033 PWs)   bands (ev):

   -63.6868 -37.7981 -37.7887 -37.6687 -16.1148 -15.2833  -7.7582  -6.5602
    -6.2173  -5.3983  -4.6605  -3.9471  -3.4698  -0.7333  -0.3854  -0.1030
     1.0009

          k = 0.0667 0.3464 0.0000 (  8038 PWs)   bands (ev):

   -63.6791 -37.8711 -37.7734 -37.6882 -15.7345 -15.1247  -7.8482  -6.7428
    -6.6742  -5.6722  -4.4393  -4.2118  -3.6755  -0.7347  -0.4117   0.2583
     1.2594

          k = 0.0667 0.4234 0.0000 (  8053 PWs)   bands (ev):

   -63.6724 -37.9341 -37.7600 -37.7050 -15.3676 -14.9747  -8.1438  -7.2099
    -6.7028  -5.8397  -4.4643  -4.3034  -3.5953  -0.6413  -0.3138   0.6461
     1.3905

          k = 0.0667 0.5004 0.0000 (  8063 PWs)   bands (ev):

   -63.6679 -37.9765 -37.7509 -37.7164 -15.0932 -14.8653  -8.4028  -7.5307
    -6.7958  -5.9269  -4.6360  -4.1729  -3.3950  -0.5588  -0.1313   0.9698
     1.3795

          k = 0.0667 0.5774 0.0000 (  8086 PWs)   bands (ev):

   -63.6663 -37.9915 -37.7477 -37.7204 -14.9899 -14.8249  -8.5028  -7.6448
    -6.8479  -5.9535  -4.6962  -4.1170  -3.2902  -0.5381  -0.0202   1.1560
     1.2917

          k = 0.1333 0.2309 0.0000 (  8046 PWs)   bands (ev):

   -63.6879 -37.7909 -37.7834 -37.6703 -16.1666 -15.3045  -7.7524  -6.5084
    -6.0251  -5.5740  -4.7574  -3.7603  -3.4072  -0.7807  -0.3472  -0.2847
     1.0268

          k = 0.1333 0.3079 0.0000 (  8031 PWs)   bands (ev):

   -63.6807 -37.8455 -37.7766 -37.6948 -15.8188 -15.1572  -7.7228  -6.6306
    -6.5017  -5.9173  -4.7050  -3.9174  -3.5984  -0.8692  -0.3401  -0.0792
     1.3290

          k = 0.1333 0.3849 0.0000 (  8050 PWs)   bands (ev):

   -63.6738 -37.9039 -37.7629 -37.7187 -15.4542 -15.0038  -7.9226  -7.0644
    -6.5946  -6.0115  -4.7996  -4.1984  -3.5644  -0.7528  -0.2766   0.2497
     1.4990

          k = 0.1333 0.4619 0.0000 (  8080 PWs)   bands (ev):

   -63.6685 -37.9491 -37.7521 -37.7375 -15.1407 -14.8735  -8.1534  -7.5082
    -6.6606  -6.0027  -4.8224  -4.4854  -3.3798  -0.5799  -0.1487   0.5820
     1.5235

          k = 0.1333 0.5389 0.0000 (  8098 PWs)   bands (ev):

   -63.6656 -37.9736 -37.7478 -37.7463 -14.9555 -14.7975  -8.2938  -7.7496
    -6.7702  -5.9649  -4.7880  -4.6713  -3.1924  -0.5733   0.0722   0.8161
     1.4589

          k = 0.2000 0.3464 0.0000 (  8030 PWs)   bands (ev):

   -63.6744 -37.8895 -37.7639 -37.7273 -15.4847 -15.0135  -7.8207  -6.9870
    -6.5292  -6.1182  -5.0269  -4.0655  -3.5643  -0.8038  -0.2554   0.0652
     1.5577

          k = 0.2000 0.4234 0.0000 (  8089 PWs)   bands (ev):

   -63.6688 -37.9244 -37.7589 -37.7529 -15.1683 -14.8763  -7.9409  -7.4926
    -6.4754  -6.0834  -5.3700  -4.3469  -3.4073  -0.6176  -0.1370   0.2711
     1.6803

          k = 0.2000 0.5004 0.0000 (  8115 PWs)   bands (ev):

   -63.6651 -37.9464 -37.7820 -37.7453 -14.9367 -14.7754  -8.0034  -7.8414
    -6.6148  -5.9656  -5.5059  -4.6343  -3.1729  -0.6649   0.1714   0.4331
     1.7307

          k = 0.2000 0.5774 0.0000 (  8132 PWs)   bands (ev):

   -63.6638 -37.9538 -37.7904 -37.7427 -14.8510 -14.7380  -8.0154  -7.9649
    -6.7179  -5.8945  -5.5237  -4.7662  -3.0423  -0.7520   0.3566   0.4922
     1.7421

          k = 0.2667 0.4619 0.0000 (  8124 PWs)   bands (ev):

   -63.6649 -37.9303 -37.8005 -37.7450 -14.9310 -14.7669  -7.8776  -7.8509
    -6.4319  -5.9660  -5.9373  -4.6141  -3.1730  -0.7105   0.2109   0.2839
     1.8469

          k = 0.2667 0.5389 0.0000 (  8146 PWs)   bands (ev):

   -63.6628 -37.9265 -37.8304 -37.7407 -14.7953 -14.7026  -8.0967  -7.6866
    -6.6436  -6.1526  -5.8044  -4.8586  -2.9351  -0.9329   0.2789   0.5485
     1.9608

          k = 0.3333 0.5774 0.0000 (  8148 PWs)   bands (ev):

   -63.6620 -37.9050 -37.8620 -37.7391 -14.7449 -14.6754  -8.1910  -7.3863
    -6.8613  -6.3663  -5.6934  -4.9912  -2.8048  -1.0915   0.2162   0.7147
     2.0603

     the Fermi energy is    -1.1862 ev

!    total energy              =    -496.68304171 Ry
     Harris-Foulkes estimate   =    -496.68304171 Ry
     estimated scf accuracy    <          3.1E-13 Ry

     total all-electron energy =     -9695.014428 Ry

     The total energy is the sum of the following terms:

     one-electron contribution =   -2105.68244676 Ry
     hartree contribution      =    1053.76813405 Ry
     xc contribution           =     -42.56475973 Ry
     ewald contribution        =     904.73884759 Ry
     one-center paw contrib.   =    -306.95033068 Ry
     smearing contrib. (-TS)   =       0.00751382 Ry

     convergence has been achieved in   8 iterations

     Forces acting on atoms (Ry/au):


     negative rho (up, down):  7.965E-04 0.000E+00
     atom    1 type  1   force =     0.00000000    0.00000000    0.00000000
     atom    2 type  2   force =     0.00000000    0.00000000    0.00000604
     atom    3 type  2   force =     0.00000000    0.00000000   -0.00000604

     Total force =     0.000009     Total SCF correction =     0.000001
     SCF correction compared to forces is large: reduce conv_thr to get better values

     bfgs converged in   6 scf cycles and   5 bfgs steps
     (criteria: energy <  1.0E-04, force <  1.0E-03)

     End of BFGS Geometry Optimization

     Final energy   =    -496.6830417103 Ry
Begin final coordinates

ATOMIC_POSITIONS (crystal)
Mo      -0.000000000   0.000000000   0.000000000
S        0.333333000   0.666667000   0.950807818
S        0.333333000   0.666667000   0.049192182
End final coordinates



     Writing output data file MoS2_a601.save
 
     init_run     :      1.04s CPU      1.14s WALL (       1 calls)
     electrons    :     67.19s CPU     78.46s WALL (       6 calls)
     update_pot   :      2.32s CPU      2.81s WALL (       5 calls)
     forces       :      2.08s CPU      2.10s WALL (       6 calls)

     Called by init_run:
     wfcinit      :      0.26s CPU      0.30s WALL (       1 calls)
     potinit      :      0.20s CPU      0.20s WALL (       1 calls)

     Called by electrons:
     c_bands      :     46.86s CPU     51.59s WALL (      74 calls)
     sum_band     :     10.24s CPU     10.39s WALL (      74 calls)
     v_of_rho     :      1.86s CPU      1.93s WALL (      79 calls)
     newd         :      3.85s CPU      3.98s WALL (      79 calls)
     mix_rho      :      0.19s CPU      0.21s WALL (      74 calls)

     Called by c_bands:
     init_us_2    :      0.46s CPU      0.45s WALL (    4320 calls)
     cegterg      :     44.95s CPU     45.97s WALL (    1998 calls)

     Called by *egterg:
     h_psi        :     27.27s CPU     28.07s WALL (    6597 calls)
     s_psi        :      0.72s CPU      0.71s WALL (    6597 calls)
     g_psi        :      0.13s CPU      0.14s WALL (    4572 calls)
     cdiaghg      :     11.41s CPU     11.53s WALL (    6408 calls)

     Called by h_psi:
     add_vuspsi   :      0.78s CPU      0.75s WALL (    6597 calls)

     General routines
     calbec       :      1.42s CPU      1.51s WALL (    8892 calls)
     fft          :      1.58s CPU      1.66s WALL (    1315 calls)
     ffts         :      0.05s CPU      0.03s WALL (     153 calls)
     fftw         :     25.63s CPU     26.20s WALL (  204098 calls)
     interpolate  :      0.24s CPU      0.25s WALL (     153 calls)
     davcio       :      0.00s CPU      0.01s WALL (      27 calls)
 
     Parallel routines
     fft_scatter  :     13.14s CPU     13.45s WALL (  205566 calls)

     PAW routines
     PAW_pot      :      4.52s CPU      5.19s WALL (      84 calls)
     PAW_symme    :      0.03s CPU      0.03s WALL (     158 calls)
 
     PWSCF        :  1m14.51s CPU     1m53.68s WALL

 
   This run was terminated on:  14: 6:46   8Jul2015            

=------------------------------------------------------------------------------=
   JOB DONE.
=------------------------------------------------------------------------------=
Application 13842946 resources: utime ~2632s, stime ~44s, Rss ~48240, inblocks ~674902, outblocks ~909921
