
     Program PWSCF v.5.1.2 starts on  8Jul2015 at 15:20:40 

     This program is part of the open-source Quantum ESPRESSO suite
     for quantum simulation of materials; please cite
         "P. Giannozzi et al., J. Phys.:Condens. Matter 21 395502 (2009);
          URL http://www.quantum-espresso.org", 
     in publications or presentations arising from this work. More details at
     http://www.quantum-espresso.org/quote

     Parallel version (MPI & OpenMP), running on      24 processor cores
     Number of MPI processes:                24
     Threads/MPI process:                     1
     R & G space division:  proc/nbgrp/npool/nimage =      24
     Waiting for input...
     Reading input from standard input

     Current dimensions of program PWSCF are:
     Max number of different atomic species (ntypx) = 10
     Max number of k-points (npk) =  40000
     Max angular momentum in pseudopotentials (lmaxx) =  3
               file Mo.pbe-spn-kjpaw_psl.0.2.UPF: wavefunction(s)  4D renormalized
               file S.pbe-n-kjpaw_psl.0.1.UPF: wavefunction(s)  3P renormalized

     Subspace diagonalization in iterative solution of the eigenvalue problem:
     scalapack distributed-memory algorithm (size of sub-group:  3*  3 procs)

 
     Parallelization info
     --------------------
     sticks:   dense  smooth     PW     G-vecs:    dense   smooth      PW
     Min          47      16      5                12791     2680     455
     Max          48      17      6                12830     2725     496
     Sum        1135     397    121               307349    64839   11139
 


     bravais-lattice index     =            4
     lattice parameter (alat)  =       6.0400  a.u.
     unit-cell volume          =    1905.1178 (a.u.)^3
     number of atoms/cell      =            3
     number of atomic types    =            2
     number of electrons       =        26.00
     number of Kohn-Sham states=           17
     kinetic-energy cutoff     =      40.0000  Ry
     charge density cutoff     =     450.0000  Ry
     convergence threshold     =      1.0E-10
     mixing beta               =       0.3000
     number of iterations used =            8  plain     mixing
     Exchange-correlation      =  SLA  PW   PBX  PBC ( 1  4  3  4 0 0)
     nstep                     =           50


     celldm(1)=   6.040000  celldm(2)=   0.000000  celldm(3)=   9.983444
     celldm(4)=   0.000000  celldm(5)=   0.000000  celldm(6)=   0.000000

     crystal axes: (cart. coord. in units of alat)
               a(1) = (   1.000000   0.000000   0.000000 )  
               a(2) = (  -0.500000   0.866025   0.000000 )  
               a(3) = (   0.000000   0.000000   9.983444 )  

     reciprocal axes: (cart. coord. in units 2 pi/alat)
               b(1) = (  1.000000  0.577350  0.000000 )  
               b(2) = (  0.000000  1.154701  0.000000 )  
               b(3) = (  0.000000  0.000000  0.100166 )  


     PseudoPot. # 1 for Mo read from file:
     /global/homes/c/chunjing/espresso/pseudo/Mo.pbe-spn-kjpaw_psl.0.2.UPF
     MD5 check sum: 4d55e26c65023fa7f2775461318ed04e
     Pseudo is Projector augmented-wave + core cor, Zval = 14.0
     Generated using "atomic" code by A. Dal Corso  v.5.0.2 svn rev. 9415
     Shape of augmentation charge: PSQ
     Using radial grid of 1229 points,  6 beta functions with: 
                l(1) =   0
                l(2) =   0
                l(3) =   1
                l(4) =   1
                l(5) =   2
                l(6) =   2
     Q(r) pseudized with 0 coefficients 


     PseudoPot. # 2 for  S read from file:
     /global/homes/c/chunjing/espresso/pseudo/S.pbe-n-kjpaw_psl.0.1.UPF
     MD5 check sum: 4d0aa7498161b95d6b336a838fdb998f
     Pseudo is Projector augmented-wave + core cor, Zval =  6.0
     Generated using "atomic" code by A. Dal Corso  v.5.0.2 svn rev. 9415
     Shape of augmentation charge: PSQ
     Using radial grid of 1151 points,  4 beta functions with: 
                l(1) =   0
                l(2) =   0
                l(3) =   1
                l(4) =   1
     Q(r) pseudized with 0 coefficients 


     atomic species   valence    mass     pseudopotential
        Mo            14.00     1.00000     Mo( 1.00)
        S              6.00     1.00000      S( 1.00)

     12 Sym. Ops. (no inversion) found



   Cartesian axes

     site n.     atom                  positions (alat units)
         1           Mo  tau(   1) = (   0.0000000   0.0000000   0.0000000  )
         2           S   tau(   2) = (  -0.0000005   0.5773506   9.4942552  )
         3           S   tau(   3) = (  -0.0000005   0.5773506   0.4891888  )

     number of k points=    27  Methfessel-Paxton smearing, width (Ry)=  0.0500
                       cart. coord. in units 2pi/alat
        k(    1) = (   0.0000000   0.0000000   0.0000000), wk =   0.0088889
        k(    2) = (   0.0000000   0.0769800   0.0000000), wk =   0.0533333
        k(    3) = (   0.0000000   0.1539601   0.0000000), wk =   0.0533333
        k(    4) = (   0.0000000   0.2309401   0.0000000), wk =   0.0533333
        k(    5) = (   0.0000000   0.3079201   0.0000000), wk =   0.0533333
        k(    6) = (   0.0000000   0.3849002   0.0000000), wk =   0.0533333
        k(    7) = (   0.0000000   0.4618802   0.0000000), wk =   0.0533333
        k(    8) = (   0.0000000   0.5388603   0.0000000), wk =   0.0533333
        k(    9) = (   0.0666667   0.1154701   0.0000000), wk =   0.0533333
        k(   10) = (   0.0666667   0.1924501   0.0000000), wk =   0.1066667
        k(   11) = (   0.0666667   0.2694301   0.0000000), wk =   0.1066667
        k(   12) = (   0.0666667   0.3464102   0.0000000), wk =   0.1066667
        k(   13) = (   0.0666667   0.4233902   0.0000000), wk =   0.1066667
        k(   14) = (   0.0666667   0.5003702   0.0000000), wk =   0.1066667
        k(   15) = (   0.0666667   0.5773503   0.0000000), wk =   0.0533333
        k(   16) = (   0.1333333   0.2309401   0.0000000), wk =   0.0533333
        k(   17) = (   0.1333333   0.3079201   0.0000000), wk =   0.1066667
        k(   18) = (   0.1333333   0.3849002   0.0000000), wk =   0.1066667
        k(   19) = (   0.1333333   0.4618802   0.0000000), wk =   0.1066667
        k(   20) = (   0.1333333   0.5388603   0.0000000), wk =   0.1066667
        k(   21) = (   0.2000000   0.3464102   0.0000000), wk =   0.0533333
        k(   22) = (   0.2000000   0.4233902   0.0000000), wk =   0.1066667
        k(   23) = (   0.2000000   0.5003702   0.0000000), wk =   0.1066667
        k(   24) = (   0.2000000   0.5773503   0.0000000), wk =   0.0533333
        k(   25) = (   0.2666667   0.4618802   0.0000000), wk =   0.0533333
        k(   26) = (   0.2666667   0.5388603   0.0000000), wk =   0.1066667
        k(   27) = (   0.3333333   0.5773503   0.0000000), wk =   0.0177778

     Dense  grid:   307349 G-vectors     FFT dimensions: (  45,  45, 432)

     Smooth grid:    64839 G-vectors     FFT dimensions: (  25,  25, 243)

     Largest allocated arrays     est. size (Mb)     dimensions
        Kohn-Sham Wavefunctions         0.10 Mb     (     374,   17)
        NL pseudopotentials             0.19 Mb     (     374,   34)
        Each V/rho on FFT grid          0.56 Mb     (   36450)
        Each G-vector array             0.10 Mb     (   12803)
        G-vector shells                 0.05 Mb     (    6069)
     Largest temporary arrays     est. size (Mb)     dimensions
        Auxiliary wavefunctions         0.39 Mb     (     374,   68)
        Each subspace H/S matrix        0.01 Mb     (      22,   22)
        Each <psi_i|beta_j> matrix      0.01 Mb     (      34,   17)
        Arrays for rho mixing           4.45 Mb     (   36450,    8)

     Initial potential from superposition of free atoms
     Check: negative starting charge=   -0.000763

     starting charge   25.99864, renormalised to   26.00000

     negative rho (up, down):  7.626E-04 0.000E+00
     Starting wfc are   21 randomized atomic wfcs
     Checking if some PAW data can be deallocated... 

     total cpu time spent up to now is        2.3 secs

     per-process dynamical memory:    23.3 Mb

     Self-consistent Calculation

     iteration #  1     ecut=    40.00 Ry     beta=0.30
     Davidson diagonalization with overlap
     ethr =  1.00E-02,  avg # of iterations =  3.0

     negative rho (up, down):  7.326E-04 0.000E+00

     total cpu time spent up to now is        3.5 secs

     total energy              =    -496.54671044 Ry
     Harris-Foulkes estimate   =    -496.77866702 Ry
     estimated scf accuracy    <       0.52550220 Ry

     iteration #  2     ecut=    40.00 Ry     beta=0.30
     Davidson diagonalization with overlap
     ethr =  2.02E-03,  avg # of iterations =  2.3

     negative rho (up, down):  7.483E-04 0.000E+00

     total cpu time spent up to now is        4.5 secs

     total energy              =    -496.63492126 Ry
     Harris-Foulkes estimate   =    -496.73462293 Ry
     estimated scf accuracy    <       0.35275415 Ry

     iteration #  3     ecut=    40.00 Ry     beta=0.30
     Davidson diagonalization with overlap
     ethr =  1.36E-03,  avg # of iterations =  1.8

     negative rho (up, down):  7.774E-04 0.000E+00

     total cpu time spent up to now is        5.4 secs

     total energy              =    -496.67919016 Ry
     Harris-Foulkes estimate   =    -496.68724157 Ry
     estimated scf accuracy    <       0.02256837 Ry

     iteration #  4     ecut=    40.00 Ry     beta=0.30
     Davidson diagonalization with overlap
     ethr =  8.68E-05,  avg # of iterations =  3.0

     negative rho (up, down):  7.737E-04 0.000E+00

     total cpu time spent up to now is        6.5 secs

     total energy              =    -496.68227990 Ry
     Harris-Foulkes estimate   =    -496.68406125 Ry
     estimated scf accuracy    <       0.00464221 Ry

     iteration #  5     ecut=    40.00 Ry     beta=0.30
     Davidson diagonalization with overlap
     ethr =  1.79E-05,  avg # of iterations =  2.0

     negative rho (up, down):  8.072E-04 0.000E+00

     total cpu time spent up to now is        7.6 secs

     total energy              =    -496.68492109 Ry
     Harris-Foulkes estimate   =    -496.68522495 Ry
     estimated scf accuracy    <       0.00163330 Ry

     iteration #  6     ecut=    40.00 Ry     beta=0.30
     Davidson diagonalization with overlap
     ethr =  6.28E-06,  avg # of iterations =  2.0

     negative rho (up, down):  8.052E-04 0.000E+00

     total cpu time spent up to now is        8.4 secs

     total energy              =    -496.68307047 Ry
     Harris-Foulkes estimate   =    -496.68316414 Ry
     estimated scf accuracy    <       0.00037158 Ry

     iteration #  7     ecut=    40.00 Ry     beta=0.30
     Davidson diagonalization with overlap
     ethr =  1.43E-06,  avg # of iterations =  1.8

     negative rho (up, down):  8.053E-04 0.000E+00

     total cpu time spent up to now is        9.3 secs

     total energy              =    -496.68311334 Ry
     Harris-Foulkes estimate   =    -496.68311484 Ry
     estimated scf accuracy    <       0.00001199 Ry

     iteration #  8     ecut=    40.00 Ry     beta=0.30
     Davidson diagonalization with overlap
     ethr =  4.61E-08,  avg # of iterations =  3.0

     negative rho (up, down):  8.108E-04 0.000E+00

     total cpu time spent up to now is       10.5 secs

     total energy              =    -496.68311680 Ry
     Harris-Foulkes estimate   =    -496.68311713 Ry
     estimated scf accuracy    <       0.00000329 Ry

     iteration #  9     ecut=    40.00 Ry     beta=0.30
     Davidson diagonalization with overlap
     ethr =  1.27E-08,  avg # of iterations =  2.0

     negative rho (up, down):  8.040E-04 0.000E+00

     total cpu time spent up to now is       11.5 secs

     total energy              =    -496.68311714 Ry
     Harris-Foulkes estimate   =    -496.68311730 Ry
     estimated scf accuracy    <       0.00000055 Ry

     iteration # 10     ecut=    40.00 Ry     beta=0.30
     Davidson diagonalization with overlap
     ethr =  2.12E-09,  avg # of iterations =  1.6

     negative rho (up, down):  8.017E-04 0.000E+00

     total cpu time spent up to now is       12.4 secs

     total energy              =    -496.68311718 Ry
     Harris-Foulkes estimate   =    -496.68311721 Ry
     estimated scf accuracy    <       0.00000012 Ry

     iteration # 11     ecut=    40.00 Ry     beta=0.30
     Davidson diagonalization with overlap
     ethr =  4.59E-10,  avg # of iterations =  2.0

     negative rho (up, down):  8.007E-04 0.000E+00

     total cpu time spent up to now is       13.4 secs

     total energy              =    -496.68311721 Ry
     Harris-Foulkes estimate   =    -496.68311720 Ry
     estimated scf accuracy    <          5.2E-09 Ry

     iteration # 12     ecut=    40.00 Ry     beta=0.30
     Davidson diagonalization with overlap
     ethr =  1.99E-11,  avg # of iterations =  3.0

     negative rho (up, down):  8.002E-04 0.000E+00

     total cpu time spent up to now is       14.6 secs

     total energy              =    -496.68311721 Ry
     Harris-Foulkes estimate   =    -496.68311721 Ry
     estimated scf accuracy    <          2.1E-09 Ry

     iteration # 13     ecut=    40.00 Ry     beta=0.30
     Davidson diagonalization with overlap
     ethr =  8.21E-12,  avg # of iterations =  2.0

     negative rho (up, down):  8.003E-04 0.000E+00

     total cpu time spent up to now is       15.5 secs

     End of self-consistent calculation

          k = 0.0000 0.0000 0.0000 (  8029 PWs)   bands (ev):

   -63.7488 -37.8570 -37.6780 -37.6780 -16.8835 -15.5974  -8.4111  -5.4443
    -5.4443  -4.5755  -4.3378  -4.3378  -2.8222  -0.0954  -0.0954   0.1271
     0.1271

          k = 0.0000 0.0770 0.0000 (  8059 PWs)   bands (ev):

   -63.7473 -37.8538 -37.6939 -37.6816 -16.8190 -15.5706  -8.3362  -5.5922
    -5.3762  -4.9465  -4.4435  -4.0654  -2.8555  -0.1915  -0.0553   0.0189
     0.0540

          k = 0.0000 0.1540 0.0000 (  8077 PWs)   bands (ev):

   -63.7430 -37.8451 -37.7383 -37.6917 -16.6320 -15.4927  -8.1324  -5.9673
    -5.4503  -5.1810  -4.7129  -3.9009  -2.9906  -0.4087  -0.3073  -0.1325
     0.3054

          k = 0.0000 0.2309 0.0000 (  8113 PWs)   bands (ev):

   -63.7366 -37.8322 -37.8030 -37.7067 -16.3420 -15.3723  -7.8827  -6.4072
    -5.9730  -5.0531  -4.8870  -3.9876  -3.2773  -0.6432  -0.3586  -0.2007
     0.6508

          k = 0.0000 0.3079 0.0000 (  8116 PWs)   bands (ev):

   -63.7293 -37.8764 -37.8173 -37.7238 -15.9828 -15.2243  -7.7996  -6.6877
    -6.4932  -5.3877  -4.5430  -4.2206  -3.6215  -0.6558  -0.5498   0.1279
     0.9620

          k = 0.0000 0.3849 0.0000 (  8150 PWs)   bands (ev):

   -63.7223 -37.9461 -37.8031 -37.7400 -15.6050 -15.0714  -8.0294  -6.9714
    -6.7355  -5.6686  -4.4516  -4.2152  -3.7881  -0.6559  -0.5143   0.5258
     1.1926

          k = 0.0000 0.4619 0.0000 (  8140 PWs)   bands (ev):

   -63.7167 -37.9999 -37.7919 -37.7525 -15.2782 -14.9425  -8.3373  -7.3453
    -6.7941  -5.8681  -4.6112  -3.9689  -3.6783  -0.6720  -0.3143   0.8471
     1.3353

          k = 0.0000 0.5389 0.0000 (  8162 PWs)   bands (ev):

   -63.7137 -38.0292 -37.7858 -37.7594 -15.0840 -14.8679  -8.5328  -7.5519
    -6.8713  -5.9711  -4.6885  -3.8418  -3.4977  -0.6486  -0.1547   1.0124
     1.4013

          k = 0.0667 0.1155 0.0000 (  8086 PWs)   bands (ev):

   -63.7444 -37.8479 -37.7234 -37.6891 -16.6933 -15.5182  -8.1960  -5.8509
    -5.2942  -5.2474  -4.6798  -3.8828  -2.9397  -0.3188  -0.3126  -0.0831
     0.2385

          k = 0.0667 0.1925 0.0000 (  8100 PWs)   bands (ev):

   -63.7390 -37.8371 -37.7766 -37.7029 -16.4545 -15.4187  -7.9612  -6.2506
    -5.7317  -5.0713  -5.0162  -3.8189  -3.1545  -0.5998  -0.3605  -0.2852
     0.5858

          k = 0.0667 0.2694 0.0000 (  8112 PWs)   bands (ev):

   -63.7322 -37.8439 -37.8232 -37.7207 -16.1291 -15.2837  -7.7719  -6.6011
    -6.2258  -5.4436  -4.7385  -3.9655  -3.4766  -0.7527  -0.4377  -0.1638
     0.9321

          k = 0.0667 0.3464 0.0000 (  8110 PWs)   bands (ev):

   -63.7250 -37.9134 -37.8087 -37.7392 -15.7584 -15.1315  -7.8624  -6.7452
    -6.7057  -5.7112  -4.5089  -4.2210  -3.6961  -0.7661  -0.4664   0.1993
     1.1962

          k = 0.0667 0.4234 0.0000 (  8124 PWs)   bands (ev):

   -63.7187 -37.9735 -37.7959 -37.7553 -15.4022 -14.9878  -8.1496  -7.2042
    -6.7264  -5.8772  -4.4650  -4.3608  -3.6330  -0.6964  -0.3759   0.5897
     1.3337

          k = 0.0667 0.5004 0.0000 (  8144 PWs)   bands (ev):

   -63.7145 -38.0140 -37.7873 -37.7661 -15.1366 -14.8833  -8.3987  -7.5182
    -6.8126  -5.9652  -4.6303  -4.2298  -3.4366  -0.6370  -0.2064   0.9154
     1.3293

          k = 0.0667 0.5774 0.0000 (  8142 PWs)   bands (ev):

   -63.7130 -38.0282 -37.7842 -37.7700 -15.0370 -14.8448  -8.4944  -7.6298
    -6.8622  -5.9924  -4.6880  -4.1747  -3.3316  -0.6256  -0.1040   1.0974
     1.2493

          k = 0.1333 0.2309 0.0000 (  8096 PWs)   bands (ev):

   -63.7332 -37.8298 -37.8253 -37.7222 -16.1797 -15.3040  -7.7657  -6.5514
    -6.0366  -5.6120  -4.8326  -3.7867  -3.4150  -0.7993  -0.3980  -0.3444
     0.9579

          k = 0.1333 0.3079 0.0000 (  8109 PWs)   bands (ev):

   -63.7265 -37.8890 -37.8117 -37.7455 -15.8405 -15.1626  -7.7395  -6.6662
    -6.5167  -5.9363  -4.7657  -3.9385  -3.6227  -0.8884  -0.3992  -0.1361
     1.2653

          k = 0.1333 0.3849 0.0000 (  8130 PWs)   bands (ev):

   -63.7201 -37.9448 -37.7987 -37.7683 -15.4861 -15.0156  -7.9338  -7.0710
    -6.6253  -6.0270  -4.8434  -4.2113  -3.6047  -0.7799  -0.3547   0.1973
     1.4397

          k = 0.1333 0.4619 0.0000 (  8152 PWs)   bands (ev):

   -63.7151 -37.9879 -37.7885 -37.7862 -15.1824 -14.8910  -8.1549  -7.5055
    -6.6837  -6.0209  -4.8639  -4.4890  -3.4249  -0.6333  -0.2352   0.5368
     1.4651

          k = 0.1333 0.5389 0.0000 (  8172 PWs)   bands (ev):

   -63.7123 -38.0113 -37.7960 -37.7829 -15.0036 -14.8186  -8.2879  -7.7414
    -6.7882  -5.9871  -4.8308  -4.6677  -3.2384  -0.6564  -0.0105   0.7797
     1.3969

          k = 0.2000 0.3464 0.0000 (  8134 PWs)   bands (ev):

   -63.7206 -37.9311 -37.7997 -37.7765 -15.5156 -15.0249  -7.8342  -7.0021
    -6.5642  -6.1216  -5.0646  -4.0831  -3.6042  -0.8226  -0.3376   0.0152
     1.4966

          k = 0.2000 0.4234 0.0000 (  8163 PWs)   bands (ev):

   -63.7154 -37.9643 -37.8066 -37.7891 -15.2089 -14.8936  -7.9470  -7.4981
    -6.5076  -6.0862  -5.3982  -4.3571  -3.4513  -0.6534  -0.2330   0.2329
     1.6145

          k = 0.2000 0.5004 0.0000 (  8182 PWs)   bands (ev):

   -63.7119 -37.9853 -37.8285 -37.7820 -14.9852 -14.7973  -8.0020  -7.8391
    -6.6385  -5.9724  -5.5364  -4.6360  -3.2184  -0.7433   0.0929   0.4088
     1.6552

          k = 0.2000 0.5774 0.0000 (  8208 PWs)   bands (ev):

   -63.7106 -37.9924 -37.8366 -37.7795 -14.9026 -14.7616  -8.0105  -7.9597
    -6.7380  -5.9046  -5.5557  -4.7632  -3.0882  -0.8433   0.2810   0.4744
     1.6614

          k = 0.2667 0.4619 0.0000 (  8210 PWs)   bands (ev):

   -63.7117 -37.9701 -37.8462 -37.7817 -14.9796 -14.7891  -7.8775  -7.8522
    -6.4626  -5.9668  -5.9579  -4.6184  -3.2177  -0.7867   0.1342   0.2637
     1.7660

          k = 0.2667 0.5389 0.0000 (  8218 PWs)   bands (ev):

   -63.7097 -37.9665 -37.8746 -37.7776 -14.8488 -14.7279  -8.0925  -7.6847
    -6.6615  -6.1809  -5.8080  -4.8567  -2.9802  -1.0269   0.2703   0.4793
     1.8686

          k = 0.3333 0.5774 0.0000 (  8238 PWs)   bands (ev):

   -63.7089 -37.9462 -37.9044 -37.7761 -14.8001 -14.7020  -8.1856  -7.3849
    -6.8690  -6.4014  -5.6975  -4.9866  -2.8492  -1.1900   0.2129   0.6491
     1.9616

     the Fermi energy is    -1.2362 ev

!    total energy              =    -496.68311721 Ry
     Harris-Foulkes estimate   =    -496.68311721 Ry
     estimated scf accuracy    <          5.2E-11 Ry

     total all-electron energy =     -9695.014503 Ry

     The total energy is the sum of the following terms:

     one-electron contribution =   -2087.47951608 Ry
     hartree contribution      =    1044.62952794 Ry
     xc contribution           =     -42.55130632 Ry
     ewald contribution        =     895.66005125 Ry
     one-center paw contrib.   =    -306.94955227 Ry
     smearing contrib. (-TS)   =       0.00767828 Ry

     convergence has been achieved in  13 iterations

     Forces acting on atoms (Ry/au):


     negative rho (up, down):  8.003E-04 0.000E+00
     atom    1 type  1   force =     0.00000000    0.00000000    0.00000000
     atom    2 type  2   force =     0.00000000    0.00000000    0.00058878
     atom    3 type  2   force =     0.00000000    0.00000000   -0.00058878

     Total force =     0.000833     Total SCF correction =     0.000010

     BFGS Geometry Optimization

     bfgs converged in   1 scf cycles and   0 bfgs steps
     (criteria: energy <  1.0E-04, force <  1.0E-03)

     End of BFGS Geometry Optimization

     Final energy   =    -496.6831172086 Ry
Begin final coordinates

ATOMIC_POSITIONS (crystal)
Mo       0.000000000   0.000000000   0.000000000
S        0.333333000   0.666667000   0.951000000
S        0.333333000   0.666667000   0.049000000
End final coordinates



     Writing output data file MoS2_a604.save
 
     init_run     :      1.07s CPU      1.12s WALL (       1 calls)
     electrons    :     11.76s CPU     13.36s WALL (       1 calls)
     forces       :      0.33s CPU      0.34s WALL (       1 calls)

     Called by init_run:
     wfcinit      :      0.26s CPU      0.27s WALL (       1 calls)
     potinit      :      0.22s CPU      0.22s WALL (       1 calls)

     Called by electrons:
     c_bands      :      8.14s CPU      9.46s WALL (      13 calls)
     sum_band     :      1.80s CPU      1.83s WALL (      13 calls)
     v_of_rho     :      0.34s CPU      0.35s WALL (      14 calls)
     newd         :      0.69s CPU      0.72s WALL (      14 calls)
     mix_rho      :      0.04s CPU      0.04s WALL (      13 calls)

     Called by c_bands:
     init_us_2    :      0.09s CPU      0.08s WALL (     756 calls)
     cegterg      :      7.76s CPU      7.99s WALL (     351 calls)

     Called by *egterg:
     h_psi        :      4.74s CPU      5.01s WALL (    1174 calls)
     s_psi        :      0.14s CPU      0.13s WALL (    1174 calls)
     g_psi        :      0.00s CPU      0.02s WALL (     796 calls)
     cdiaghg      :      2.19s CPU      2.08s WALL (    1147 calls)

     Called by h_psi:
     add_vuspsi   :      0.12s CPU      0.13s WALL (    1174 calls)

     General routines
     calbec       :      0.27s CPU      0.27s WALL (    1552 calls)
     fft          :      0.27s CPU      0.26s WALL (     231 calls)
     ffts         :      0.00s CPU      0.01s WALL (      27 calls)
     fftw         :      4.39s CPU      4.66s WALL (   36231 calls)
     interpolate  :      0.04s CPU      0.05s WALL (      27 calls)
     davcio       :      0.01s CPU      0.01s WALL (      27 calls)
 
     Parallel routines
     fft_scatter  :      2.18s CPU      2.38s WALL (   36489 calls)

     PAW routines
     PAW_pot      :      0.74s CPU      0.86s WALL (      14 calls)
     PAW_symme    :      0.00s CPU      0.00s WALL (      27 calls)
 
     PWSCF        :    13.92s CPU        16.75s WALL

 
   This run was terminated on:  15:20:56   8Jul2015            

=------------------------------------------------------------------------------=
   JOB DONE.
=------------------------------------------------------------------------------=
Application 13848003 resources: utime ~384s, stime ~11s, Rss ~45384, inblocks ~402505, outblocks ~675992
